10297203
ChemmineR-0425141737XD

 50 52  0     1  0  0  0  0  0999 V2000
   12.5200    4.3034    0.0000 Br   0  0  0  0  0  0  0  0  0  0  0  0
   11.2774   -1.1081    0.0000 S    0  0  0  0  0  0  0  0  0  0  0  0
    2.5369   -2.3034    0.0000 O    0  0  0  0  0  0  0  0  0  0  0  0
    5.1350   -2.8034    0.0000 N    0  0  3  0  0  0  0  0  0  0  0  0
   11.8610   -0.3034    0.0000 N    0  0  0  0  0  0  0  0  0  0  0  0
    6.0010   -2.3034    0.0000 C    0  0  0  0  0  0  0  0  0  0  0  0
    4.2690   -2.3034    0.0000 C    0  0  0  0  0  0  0  0  0  0  0  0
    5.1350   -3.8034    0.0000 C    0  0  0  0  0  0  0  0  0  0  0  0
    5.5010   -1.4374    0.0000 C    0  0  0  0  0  0  0  0  0  0  0  0
    6.5010   -3.1694    0.0000 C    0  0  0  0  0  0  0  0  0  0  0  0
    3.4030   -2.8034    0.0000 C    0  0  0  0  0  0  0  0  0  0  0  0
    6.8671   -1.8034    0.0000 C    0  0  0  0  0  0  0  0  0  0  0  0
    4.2690   -4.3034    0.0000 C    0  0  0  0  0  0  0  0  0  0  0  0
    7.7331   -1.3034    0.0000 C    0  0  0  0  0  0  0  0  0  0  0  0
    8.5991   -0.8034    0.0000 C    0  0  0  0  0  0  0  0  0  0  0  0
   10.3312    0.1966    0.0000 C    0  0  0  0  0  0  0  0  0  0  0  0
   10.3312   -0.8034    0.0000 C    0  0  0  0  0  0  0  0  0  0  0  0
    9.4651   -1.3034    0.0000 C    0  0  0  0  0  0  0  0  0  0  0  0
   11.2774    0.5013    0.0000 C    0  0  0  0  0  0  0  0  0  0  0  0
    8.5991    0.1966    0.0000 C    0  0  0  0  0  0  0  0  0  0  0  0
    9.4651    0.6966    0.0000 C    0  0  0  0  0  0  0  0  0  0  0  0
   11.5880    1.4518    0.0000 C    0  0  0  0  0  0  0  0  0  0  0  0
   12.5666    1.6581    0.0000 C    0  0  0  0  0  0  0  0  0  0  0  0
   10.9202    2.1962    0.0000 C    0  0  0  0  0  0  0  0  0  0  0  0
   12.8772    2.6086    0.0000 C    0  0  0  0  0  0  0  0  0  0  0  0
   11.2309    3.1467    0.0000 C    0  0  0  0  0  0  0  0  0  0  0  0
   12.2094    3.3529    0.0000 C    0  0  0  0  0  0  0  0  0  0  0  0
    4.6675   -1.8285    0.0000 H    0  0  0  0  0  0  0  0  0  0  0  0
    3.8705   -1.8285    0.0000 H    0  0  0  0  0  0  0  0  0  0  0  0
    5.3471   -4.3860    0.0000 H    0  0  0  0  0  0  0  0  0  0  0  0
    5.7456   -3.6958    0.0000 H    0  0  0  0  0  0  0  0  0  0  0  0
    6.0380   -1.1274    0.0000 H    0  0  0  0  0  0  0  0  0  0  0  0
    5.1910   -0.9004    0.0000 H    0  0  0  0  0  0  0  0  0  0  0  0
    4.9641   -1.7474    0.0000 H    0  0  0  0  0  0  0  0  0  0  0  0
    5.9641   -3.4794    0.0000 H    0  0  0  0  0  0  0  0  0  0  0  0
    6.8110   -3.7064    0.0000 H    0  0  0  0  0  0  0  0  0  0  0  0
    7.0380   -2.8594    0.0000 H    0  0  0  0  0  0  0  0  0  0  0  0
    3.0044   -3.2784    0.0000 H    0  0  0  0  0  0  0  0  0  0  0  0
    3.8015   -3.2784    0.0000 H    0  0  0  0  0  0  0  0  0  0  0  0
    3.9590   -3.7665    0.0000 H    0  0  0  0  0  0  0  0  0  0  0  0
    3.7320   -4.6134    0.0000 H    0  0  0  0  0  0  0  0  0  0  0  0
    4.5790   -4.8403    0.0000 H    0  0  0  0  0  0  0  0  0  0  0  0
    9.4651   -1.9234    0.0000 H    0  0  0  0  0  0  0  0  0  0  0  0
    8.0622    0.5066    0.0000 H    0  0  0  0  0  0  0  0  0  0  0  0
    9.4651    1.3166    0.0000 H    0  0  0  0  0  0  0  0  0  0  0  0
    2.0000   -2.6134    0.0000 H    0  0  0  0  0  0  0  0  0  0  0  0
   12.9806    1.1966    0.0000 H    0  0  0  0  0  0  0  0  0  0  0  0
   10.3135    2.0683    0.0000 H    0  0  0  0  0  0  0  0  0  0  0  0
   13.4839    2.7364    0.0000 H    0  0  0  0  0  0  0  0  0  0  0  0
   10.8168    3.6081    0.0000 H    0  0  0  0  0  0  0  0  0  0  0  0
  1 27  1  0  0  0  0
  2  5  1  0  0  0  0
  2 17  1  0  0  0  0
  3 11  1  0  0  0  0
  3 46  1  0  0  0  0
  4  6  1  0  0  0  0
  4  7  1  0  0  0  0
  4  8  1  0  0  0  0
  5 19  2  0  0  0  0
  6  9  1  0  0  0  0
  6 10  1  0  0  0  0
  6 12  1  0  0  0  0
  7 11  1  0  0  0  0
  7 28  1  0  0  0  0
  7 29  1  0  0  0  0
  8 13  1  0  0  0  0
  8 30  1  0  0  0  0
  8 31  1  0  0  0  0
  9 32  1  0  0  0  0
  9 33  1  0  0  0  0
  9 34  1  0  0  0  0
 10 35  1  0  0  0  0
 10 36  1  0  0  0  0
 10 37  1  0  0  0  0
 11 38  1  0  0  0  0
 11 39  1  0  0  0  0
 12 14  3  0  0  0  0
 13 40  1  0  0  0  0
 13 41  1  0  0  0  0
 13 42  1  0  0  0  0
 14 15  1  0  0  0  0
 15 18  2  0  0  0  0
 15 20  1  0  0  0  0
 16 17  2  0  0  0  0
 16 19  1  0  0  0  0
 16 21  1  0  0  0  0
 17 18  1  0  0  0  0
 18 43  1  0  0  0  0
 19 22  1  0  0  0  0
 20 21  2  0  0  0  0
 20 44  1  0  0  0  0
 21 45  1  0  0  0  0
 22 23  2  0  0  0  0
 22 24  1  0  0  0  0
 23 25  1  0  0  0  0
 23 47  1  0  0  0  0
 24 26  2  0  0  0  0
 24 48  1  0  0  0  0
 25 27  2  0  0  0  0
 25 49  1  0  0  0  0
 26 27  1  0  0  0  0
 26 50  1  0  0  0  0
M  END
> <PUBCHEM_COMPOUND_CID>
10297203

> <PUBCHEM_COMPOUND_CANONICALIZED>
1

> <PUBCHEM_CACTVS_COMPLEXITY>
549

> <PUBCHEM_CACTVS_HBOND_ACCEPTOR>
4

> <PUBCHEM_CACTVS_HBOND_DONOR>
1

> <PUBCHEM_CACTVS_ROTATABLE_BOND>
7

> <PUBCHEM_CACTVS_SUBSKEYS>
AAADceB7IABAEAAAAAAAAAAAAAAAAWAAAAAwYAAAAAAAAFgB9AAAHgRASAABrIjh3gYygdMAAgDkEyRiQAiDABAgAARImDgoRLgKMKKAkZGAIARggACYyhcQgMAOQgAAgAAEAACEAAEAAAgAAAAAAAAAAA==

> <PUBCHEM_IUPAC_OPENEYE_NAME>
2-[[3-[3-(4-bromophenyl)-1,2-benzothiazol-6-yl]-1,1-dimethyl-prop-2-ynyl]-ethyl-amino]ethanol

> <PUBCHEM_IUPAC_CAS_NAME>
2-[[4-[3-(4-bromophenyl)-1,2-benzothiazol-6-yl]-2-methylbut-3-yn-2-yl]-ethylamino]ethanol

> <PUBCHEM_IUPAC_NAME>
2-[[4-[3-(4-bromophenyl)-1,2-benzothiazol-6-yl]-2-methylbut-3-yn-2-yl]-ethylamino]ethanol

> <PUBCHEM_IUPAC_SYSTEMATIC_NAME>
2-[[4-[3-(4-bromophenyl)-1,2-benzothiazol-6-yl]-2-methyl-but-3-yn-2-yl]-ethyl-amino]ethanol

> <PUBCHEM_IUPAC_TRADITIONAL_NAME>
2-[[3-[3-(4-bromophenyl)-1,2-benzothiazol-6-yl]-1,1-dimethyl-prop-2-ynyl]-ethyl-amino]ethanol

> <PUBCHEM_IUPAC_INCHI>
InChI=1S/C22H23BrN2OS/c1-4-25(13-14-26)22(2,3)12-11-16-5-10-19-20(15-16)27-24-21(19)17-6-8-18(23)9-7-17/h5-10,15,26H,4,13-14H2,1-3H3

> <PUBCHEM_IUPAC_INCHIKEY>
KHISTYKSRSFTNE-UHFFFAOYSA-N

> <PUBCHEM_XLOGP3_AA>
5.2

> <PUBCHEM_EXACT_MASS>
442.071446

> <PUBCHEM_MOLECULAR_FORMULA>
C22H23BrN2OS

> <PUBCHEM_MOLECULAR_WEIGHT>
443.39982

> <PUBCHEM_OPENEYE_CAN_SMILES>
CCN(CCO)C(C)(C)C#CC1=CC2=C(C=C1)C(=NS2)C3=CC=C(C=C3)Br

> <PUBCHEM_OPENEYE_ISO_SMILES>
CCN(CCO)C(C)(C)C#CC1=CC2=C(C=C1)C(=NS2)C3=CC=C(C=C3)Br

> <PUBCHEM_CACTVS_TPSA>
64.6

> <PUBCHEM_MONOISOTOPIC_WEIGHT>
442.071446

> <PUBCHEM_TOTAL_CHARGE>
0

> <PUBCHEM_HEAVY_ATOM_COUNT>
27

> <PUBCHEM_ATOM_DEF_STEREO_COUNT>
0

> <PUBCHEM_ATOM_UDEF_STEREO_COUNT>
0

> <PUBCHEM_BOND_DEF_STEREO_COUNT>
0

> <PUBCHEM_BOND_UDEF_STEREO_COUNT>
0

> <PUBCHEM_ISOTOPIC_ATOM_COUNT>
0

> <PUBCHEM_COMPONENT_COUNT>
1

> <PUBCHEM_CACTVS_TAUTO_COUNT>
1

> <PUBCHEM_COORDINATE_TYPE>
1 __ 5 __ 255

> <PUBCHEM_BONDANNOTATIONS>
15  18  8 __ 15  20  8 __ 16  17  8 __ 16  19  8 __ 16  21  8 __ 17  18  8 __ 2  17  8 __ 2  5  8 __ 20  21  8 __ 22  23  8 __ 22  24  8 __ 23  25  8 __ 24  26  8 __ 25  27  8 __ 26  27  8 __ 5  19  8 __ 

$$$$
