22567752
ChemmineR-0425141737XD

 68 69  0     1  0  0  0  0  0999 V2000
    3.0000   -1.7500    0.0000 S   0  0  0  0  0  0  0  0  0  0  0  0
    3.0000   -6.7500    0.0000 F   0  0  0  0  0  0  0  0  0  0  0  0
    2.0000   -5.7500    0.0000 F   0  0  0  0  0  0  0  0  0  0  0  0
    4.0000   -5.7500    0.0000 F   0  0  0  0  0  0  0  0  0  0  0  0
    4.0000   -1.7500    0.0000 O   0  0  0  0  0  0  0  0  0  0  0  0
    2.0000   -1.7500    0.0000 O   0  0  0  0  0  0  0  0  0  0  0  0
    3.0000   -0.7500    0.0000 N   0  0  3  0  0  0  0  0  0  0  0  0
    8.1962    5.2500    0.0000 N   0  0  0  0  0  0  0  0  0  0  0  0
    5.5981    0.7500    0.0000 C   0  0  0  0  0  0  0  0  0  0  0  0
    3.8660   -0.2500    0.0000 C   0  0  0  0  0  0  0  0  0  0  0  0
    4.7320    1.2500    0.0000 C   0  0  0  0  0  0  0  0  0  0  0  0
    5.5981   -0.2500    0.0000 C   0  0  0  0  0  0  0  0  0  0  0  0
    3.8660    0.7500    0.0000 C   0  0  0  0  0  0  0  0  0  0  0  0
    4.7320   -0.7500    0.0000 C   0  0  0  0  0  0  0  0  0  0  0  0
    6.4641    1.2500    0.0000 C   0  0  0  0  0  0  0  0  0  0  0  0
    6.4641    2.2500    0.0000 C   0  0  0  0  0  0  0  0  0  0  0  0
    7.3301    2.7500    0.0000 C   0  0  0  0  0  0  0  0  0  0  0  0
    2.1340   -0.2500    0.0000 C   0  0  0  0  0  0  0  0  0  0  0  0
    7.3301    3.7500    0.0000 C   0  0  0  0  0  0  0  0  0  0  0  0
    3.0000   -2.7500    0.0000 C   0  0  0  0  0  0  0  0  0  0  0  0
    8.1962    4.2500    0.0000 C   0  0  0  0  0  0  0  0  0  0  0  0
    2.1340   -3.2500    0.0000 C   0  0  0  0  0  0  0  0  0  0  0  0
    3.8660   -3.2500    0.0000 C   0  0  0  0  0  0  0  0  0  0  0  0
    9.0622    5.7500    0.0000 C   0  0  0  0  0  0  0  0  0  0  0  0
    7.3301    5.7500    0.0000 C   0  0  0  0  0  0  0  0  0  0  0  0
    2.1340   -4.2500    0.0000 C   0  0  0  0  0  0  0  0  0  0  0  0
    3.8660   -4.2500    0.0000 C   0  0  0  0  0  0  0  0  0  0  0  0
    3.0000   -4.7500    0.0000 C   0  0  0  0  0  0  0  0  0  0  0  0
    7.3301    6.7500    0.0000 C   0  0  0  0  0  0  0  0  0  0  0  0
    9.0622    6.7500    0.0000 C   0  0  0  0  0  0  0  0  0  0  0  0
    3.0000   -5.7500    0.0000 C   0  0  0  0  0  0  0  0  0  0  0  0
    5.5981    1.3700    0.0000 H   0  0  0  0  0  0  0  0  0  0  0  0
    3.8660   -0.8700    0.0000 H   0  0  0  0  0  0  0  0  0  0  0  0
    5.8101   -0.8326    0.0000 H   0  0  0  0  0  0  0  0  0  0  0  0
    6.2087   -0.1423    0.0000 H   0  0  0  0  0  0  0  0  0  0  0  0
    5.1306    1.7250    0.0000 H   0  0  0  0  0  0  0  0  0  0  0  0
    4.3335    1.7250    0.0000 H   0  0  0  0  0  0  0  0  0  0  0  0
    3.6540    1.3326    0.0000 H   0  0  0  0  0  0  0  0  0  0  0  0
    3.2554    0.6423    0.0000 H   0  0  0  0  0  0  0  0  0  0  0  0
    4.3335   -1.2250    0.0000 H   0  0  0  0  0  0  0  0  0  0  0  0
    5.1306   -1.2250    0.0000 H   0  0  0  0  0  0  0  0  0  0  0  0
    6.6762    0.6674    0.0000 H   0  0  0  0  0  0  0  0  0  0  0  0
    7.0747    1.3577    0.0000 H   0  0  0  0  0  0  0  0  0  0  0  0
    6.2520    2.8326    0.0000 H   0  0  0  0  0  0  0  0  0  0  0  0
    5.8535    2.1423    0.0000 H   0  0  0  0  0  0  0  0  0  0  0  0
    7.5422    2.1674    0.0000 H   0  0  0  0  0  0  0  0  0  0  0  0
    7.9407    2.8577    0.0000 H   0  0  0  0  0  0  0  0  0  0  0  0
    2.4440    0.2869    0.0000 H   0  0  0  0  0  0  0  0  0  0  0  0
    1.5970    0.0600    0.0000 H   0  0  0  0  0  0  0  0  0  0  0  0
    1.8240   -0.7869    0.0000 H   0  0  0  0  0  0  0  0  0  0  0  0
    7.1181    4.3326    0.0000 H   0  0  0  0  0  0  0  0  0  0  0  0
    6.7196    3.6423    0.0000 H   0  0  0  0  0  0  0  0  0  0  0  0
    8.4082    3.6674    0.0000 H   0  0  0  0  0  0  0  0  0  0  0  0
    8.8067    4.3577    0.0000 H   0  0  0  0  0  0  0  0  0  0  0  0
    1.5970   -2.9400    0.0000 H   0  0  0  0  0  0  0  0  0  0  0  0
    4.4030   -2.9400    0.0000 H   0  0  0  0  0  0  0  0  0  0  0  0
    6.7196    5.8577    0.0000 H   0  0  0  0  0  0  0  0  0  0  0  0
    7.1181    5.1674    0.0000 H   0  0  0  0  0  0  0  0  0  0  0  0
    9.2742    5.1674    0.0000 H   0  0  0  0  0  0  0  0  0  0  0  0
    9.6728    5.8577    0.0000 H   0  0  0  0  0  0  0  0  0  0  0  0
    1.5970   -4.5600    0.0000 H   0  0  0  0  0  0  0  0  0  0  0  0
    4.4030   -4.5600    0.0000 H   0  0  0  0  0  0  0  0  0  0  0  0
    9.6822    6.7500    0.0000 H   0  0  0  0  0  0  0  0  0  0  0  0
    9.0622    7.3700    0.0000 H   0  0  0  0  0  0  0  0  0  0  0  0
    8.4422    6.7500    0.0000 H   0  0  0  0  0  0  0  0  0  0  0  0
    7.9501    6.7500    0.0000 H   0  0  0  0  0  0  0  0  0  0  0  0
    7.3301    7.3700    0.0000 H   0  0  0  0  0  0  0  0  0  0  0  0
    6.7101    6.7500    0.0000 H   0  0  0  0  0  0  0  0  0  0  0  0
  1  5  2  0  0  0  0
  1  6  2  0  0  0  0
  1  7  1  0  0  0  0
  1 20  1  0  0  0  0
  2 31  1  0  0  0  0
  3 31  1  0  0  0  0
  4 31  1  0  0  0  0
  7 10  1  0  0  0  0
  7 18  1  0  0  0  0
  8 21  1  0  0  0  0
  8 24  1  0  0  0  0
  8 25  1  0  0  0  0
  9 11  1  0  0  0  0
  9 12  1  0  0  0  0
  9 15  1  0  0  0  0
  9 32  1  0  0  0  0
 10 13  1  0  0  0  0
 10 14  1  0  0  0  0
 10 33  1  0  0  0  0
 11 13  1  0  0  0  0
 11 36  1  0  0  0  0
 11 37  1  0  0  0  0
 12 14  1  0  0  0  0
 12 34  1  0  0  0  0
 12 35  1  0  0  0  0
 13 38  1  0  0  0  0
 13 39  1  0  0  0  0
 14 40  1  0  0  0  0
 14 41  1  0  0  0  0
 15 16  1  0  0  0  0
 15 42  1  0  0  0  0
 15 43  1  0  0  0  0
 16 17  1  0  0  0  0
 16 44  1  0  0  0  0
 16 45  1  0  0  0  0
 17 19  1  0  0  0  0
 17 46  1  0  0  0  0
 17 47  1  0  0  0  0
 18 48  1  0  0  0  0
 18 49  1  0  0  0  0
 18 50  1  0  0  0  0
 19 21  1  0  0  0  0
 19 51  1  0  0  0  0
 19 52  1  0  0  0  0
 20 22  2  0  0  0  0
 20 23  1  0  0  0  0
 21 53  1  0  0  0  0
 21 54  1  0  0  0  0
 22 26  1  0  0  0  0
 22 55  1  0  0  0  0
 23 27  2  0  0  0  0
 23 56  1  0  0  0  0
 24 30  1  0  0  0  0
 24 59  1  0  0  0  0
 24 60  1  0  0  0  0
 25 29  1  0  0  0  0
 25 57  1  0  0  0  0
 25 58  1  0  0  0  0
 26 28  2  0  0  0  0
 26 61  1  0  0  0  0
 27 28  1  0  0  0  0
 27 62  1  0  0  0  0
 28 31  1  0  0  0  0
 29 66  1  0  0  0  0
 29 67  1  0  0  0  0
 29 68  1  0  0  0  0
 30 63  1  0  0  0  0
 30 64  1  0  0  0  0
 30 65  1  0  0  0  0
M  END
> <PUBCHEM_COMPOUND_CID>
22567752

> <PUBCHEM_COMPOUND_CANONICALIZED>
1

> <PUBCHEM_CACTVS_COMPLEXITY>
601

> <PUBCHEM_CACTVS_HBOND_ACCEPTOR>
7

> <PUBCHEM_CACTVS_HBOND_DONOR>
0

> <PUBCHEM_CACTVS_ROTATABLE_BOND>
11

> <PUBCHEM_CACTVS_SUBSKEYS>
AAADcfB7MYBAAAAAAAAAAAAAAAAAAAAAAAAwYAAAAAAAAAABAAAAHQQAQAAADSjBWBQyAYMAAAKAAiBCAHBCABAgAAAIiBgIAIgIICKAkRCEIAAggACIiAcQgMAOEAAAAAAAAAAwAAAAAAAAAAAAAAAAAA==

> <PUBCHEM_IUPAC_OPENEYE_NAME>
N-[4-[5-(diethylamino)pentyl]cyclohexyl]-N-methyl-4-(trifluoromethyl)benzenesulfonamide

> <PUBCHEM_IUPAC_CAS_NAME>
N-[4-[5-(diethylamino)pentyl]cyclohexyl]-N-methyl-4-(trifluoromethyl)benzenesulfonamide

> <PUBCHEM_IUPAC_NAME>
N-[4-[5-(diethylamino)pentyl]cyclohexyl]-N-methyl-4-(trifluoromethyl)benzenesulfonamide

> <PUBCHEM_IUPAC_SYSTEMATIC_NAME>
N-[4-[5-(diethylamino)pentyl]cyclohexyl]-N-methyl-4-(trifluoromethyl)benzenesulfonamide

> <PUBCHEM_IUPAC_TRADITIONAL_NAME>
N-[4-[5-(diethylamino)pentyl]cyclohexyl]-N-methyl-4-(trifluoromethyl)benzenesulfonamide

> <PUBCHEM_IUPAC_INCHI>
InChI=1S/C23H37F3N2O2S/c1-4-28(5-2)18-8-6-7-9-19-10-14-21(15-11-19)27(3)31(29,30)22-16-12-20(13-17-22)23(24,25)26/h12-13,16-17,19,21H,4-11,14-15,18H2,1-3H3

> <PUBCHEM_IUPAC_INCHIKEY>
NJPKKNHLXHTMLK-UHFFFAOYSA-N

> <PUBCHEM_XLOGP3_AA>
6

> <PUBCHEM_EXACT_MASS>
462.252784

> <PUBCHEM_MOLECULAR_FORMULA>
C23H37F3N2O2S

> <PUBCHEM_MOLECULAR_WEIGHT>
462.61229

> <PUBCHEM_OPENEYE_CAN_SMILES>
CCN(CC)CCCCCC1CCC(CC1)N(C)S(=O)(=O)C2=CC=C(C=C2)C(F)(F)F

> <PUBCHEM_OPENEYE_ISO_SMILES>
CCN(CC)CCCCCC1CCC(CC1)N(C)S(=O)(=O)C2=CC=C(C=C2)C(F)(F)F

> <PUBCHEM_CACTVS_TPSA>
49

> <PUBCHEM_MONOISOTOPIC_WEIGHT>
462.252784

> <PUBCHEM_TOTAL_CHARGE>
0

> <PUBCHEM_HEAVY_ATOM_COUNT>
31

> <PUBCHEM_ATOM_DEF_STEREO_COUNT>
0

> <PUBCHEM_ATOM_UDEF_STEREO_COUNT>
0

> <PUBCHEM_BOND_DEF_STEREO_COUNT>
0

> <PUBCHEM_BOND_UDEF_STEREO_COUNT>
0

> <PUBCHEM_ISOTOPIC_ATOM_COUNT>
0

> <PUBCHEM_COMPONENT_COUNT>
1

> <PUBCHEM_CACTVS_TAUTO_COUNT>
1

> <PUBCHEM_COORDINATE_TYPE>
1 __ 5 __ 255

> <PUBCHEM_BONDANNOTATIONS>
20  22  8 __ 20  23  8 __ 22  26  8 __ 23  27  8 __ 26  28  8 __ 27  28  8 __ 

$$$$
