22567773
ChemmineR-0425141737XD

 66 67  0     1  0  0  0  0  0999 V2000
    3.0000   -2.0000    0.0000 S   0  0  0  0  0  0  0  0  0  0  0  0
    3.0000   -7.0000    0.0000 F   0  0  0  0  0  0  0  0  0  0  0  0
    2.0000   -6.0000    0.0000 F   0  0  0  0  0  0  0  0  0  0  0  0
    4.0000   -6.0000    0.0000 F   0  0  0  0  0  0  0  0  0  0  0  0
    4.0000   -2.0000    0.0000 O   0  0  0  0  0  0  0  0  0  0  0  0
    2.0000   -2.0000    0.0000 O   0  0  0  0  0  0  0  0  0  0  0  0
    3.0000   -1.0000    0.0000 N   0  0  3  0  0  0  0  0  0  0  0  0
    8.1962    5.0000    0.0000 N   0  0  3  0  0  0  0  0  0  0  0  0
    5.5981    0.5000    0.0000 C   0  0  0  0  0  0  0  0  0  0  0  0
    3.8660   -0.5000    0.0000 C   0  0  0  0  0  0  0  0  0  0  0  0
    4.7320    1.0000    0.0000 C   0  0  0  0  0  0  0  0  0  0  0  0
    5.5981   -0.5000    0.0000 C   0  0  0  0  0  0  0  0  0  0  0  0
    3.8660    0.5000    0.0000 C   0  0  0  0  0  0  0  0  0  0  0  0
    4.7320   -1.0000    0.0000 C   0  0  0  0  0  0  0  0  0  0  0  0
    6.4641    1.0000    0.0000 C   0  0  0  0  0  0  0  0  0  0  0  0
    6.4641    2.0000    0.0000 C   0  0  0  0  0  0  0  0  0  0  0  0
    7.3301    2.5000    0.0000 C   0  0  0  0  0  0  0  0  0  0  0  0
    2.1340   -0.5000    0.0000 C   0  0  0  0  0  0  0  0  0  0  0  0
    7.3301    3.5000    0.0000 C   0  0  0  0  0  0  0  0  0  0  0  0
    3.0000   -3.0000    0.0000 C   0  0  0  0  0  0  0  0  0  0  0  0
    8.1962    4.0000    0.0000 C   0  0  0  0  0  0  0  0  0  0  0  0
    2.1340   -3.5000    0.0000 C   0  0  0  0  0  0  0  0  0  0  0  0
    3.8660   -3.5000    0.0000 C   0  0  0  0  0  0  0  0  0  0  0  0
    2.1340   -4.5000    0.0000 C   0  0  0  0  0  0  0  0  0  0  0  0
    3.8660   -4.5000    0.0000 C   0  0  0  0  0  0  0  0  0  0  0  0
    9.0622    5.5000    0.0000 C   0  0  0  0  0  0  0  0  0  0  0  0
    3.0000   -5.0000    0.0000 C   0  0  0  0  0  0  0  0  0  0  0  0
    7.3301    5.5000    0.0000 C   0  0  0  0  0  0  0  0  0  0  0  0
    3.0000   -6.0000    0.0000 C   0  0  0  0  0  0  0  0  0  0  0  0
    9.0622    6.5000    0.0000 C   0  0  0  0  0  0  0  0  0  0  0  0
    9.9282    7.0000    0.0000 C   0  0  0  0  0  0  0  0  0  0  0  0
    5.5981    1.1200    0.0000 H   0  0  0  0  0  0  0  0  0  0  0  0
    3.8660   -1.1200    0.0000 H   0  0  0  0  0  0  0  0  0  0  0  0
    5.1306    1.4750    0.0000 H   0  0  0  0  0  0  0  0  0  0  0  0
    4.3335    1.4750    0.0000 H   0  0  0  0  0  0  0  0  0  0  0  0
    5.8101   -1.0826    0.0000 H   0  0  0  0  0  0  0  0  0  0  0  0
    6.2087   -0.3923    0.0000 H   0  0  0  0  0  0  0  0  0  0  0  0
    4.3335   -1.4750    0.0000 H   0  0  0  0  0  0  0  0  0  0  0  0
    5.1306   -1.4750    0.0000 H   0  0  0  0  0  0  0  0  0  0  0  0
    3.6540    1.0826    0.0000 H   0  0  0  0  0  0  0  0  0  0  0  0
    3.2554    0.3923    0.0000 H   0  0  0  0  0  0  0  0  0  0  0  0
    6.6762    0.4174    0.0000 H   0  0  0  0  0  0  0  0  0  0  0  0
    7.0747    1.1077    0.0000 H   0  0  0  0  0  0  0  0  0  0  0  0
    6.2520    2.5826    0.0000 H   0  0  0  0  0  0  0  0  0  0  0  0
    5.8535    1.8923    0.0000 H   0  0  0  0  0  0  0  0  0  0  0  0
    7.5422    1.9174    0.0000 H   0  0  0  0  0  0  0  0  0  0  0  0
    7.9407    2.6077    0.0000 H   0  0  0  0  0  0  0  0  0  0  0  0
    2.4440    0.0369    0.0000 H   0  0  0  0  0  0  0  0  0  0  0  0
    1.5970   -0.1900    0.0000 H   0  0  0  0  0  0  0  0  0  0  0  0
    1.8240   -1.0369    0.0000 H   0  0  0  0  0  0  0  0  0  0  0  0
    7.1181    4.0826    0.0000 H   0  0  0  0  0  0  0  0  0  0  0  0
    6.7196    3.3923    0.0000 H   0  0  0  0  0  0  0  0  0  0  0  0
    8.4082    3.4174    0.0000 H   0  0  0  0  0  0  0  0  0  0  0  0
    8.8067    4.1077    0.0000 H   0  0  0  0  0  0  0  0  0  0  0  0
    1.5970   -3.1900    0.0000 H   0  0  0  0  0  0  0  0  0  0  0  0
    4.4030   -3.1900    0.0000 H   0  0  0  0  0  0  0  0  0  0  0  0
    1.5970   -4.8100    0.0000 H   0  0  0  0  0  0  0  0  0  0  0  0
    4.4030   -4.8100    0.0000 H   0  0  0  0  0  0  0  0  0  0  0  0
    9.2742    4.9174    0.0000 H   0  0  0  0  0  0  0  0  0  0  0  0
    9.6728    5.6077    0.0000 H   0  0  0  0  0  0  0  0  0  0  0  0
    7.6401    6.0369    0.0000 H   0  0  0  0  0  0  0  0  0  0  0  0
    6.7932    5.8100    0.0000 H   0  0  0  0  0  0  0  0  0  0  0  0
    7.0201    4.9631    0.0000 H   0  0  0  0  0  0  0  0  0  0  0  0
    8.5252    6.8100    0.0000 H   0  0  0  0  0  0  0  0  0  0  0  0
   10.4651    6.6900    0.0000 H   0  0  0  0  0  0  0  0  0  0  0  0
    9.9282    7.6200    0.0000 H   0  0  0  0  0  0  0  0  0  0  0  0
  1  5  2  0  0  0  0
  1  6  2  0  0  0  0
  1  7  1  0  0  0  0
  1 20  1  0  0  0  0
  2 29  1  0  0  0  0
  3 29  1  0  0  0  0
  4 29  1  0  0  0  0
  7 10  1  0  0  0  0
  7 18  1  0  0  0  0
  8 21  1  0  0  0  0
  8 26  1  0  0  0  0
  8 28  1  0  0  0  0
  9 11  1  0  0  0  0
  9 12  1  0  0  0  0
  9 15  1  0  0  0  0
  9 32  1  0  0  0  0
 10 13  1  0  0  0  0
 10 14  1  0  0  0  0
 10 33  1  0  0  0  0
 11 13  1  0  0  0  0
 11 34  1  0  0  0  0
 11 35  1  0  0  0  0
 12 14  1  0  0  0  0
 12 36  1  0  0  0  0
 12 37  1  0  0  0  0
 13 40  1  0  0  0  0
 13 41  1  0  0  0  0
 14 38  1  0  0  0  0
 14 39  1  0  0  0  0
 15 16  1  0  0  0  0
 15 42  1  0  0  0  0
 15 43  1  0  0  0  0
 16 17  1  0  0  0  0
 16 44  1  0  0  0  0
 16 45  1  0  0  0  0
 17 19  1  0  0  0  0
 17 46  1  0  0  0  0
 17 47  1  0  0  0  0
 18 48  1  0  0  0  0
 18 49  1  0  0  0  0
 18 50  1  0  0  0  0
 19 21  1  0  0  0  0
 19 51  1  0  0  0  0
 19 52  1  0  0  0  0
 20 22  2  0  0  0  0
 20 23  1  0  0  0  0
 21 53  1  0  0  0  0
 21 54  1  0  0  0  0
 22 24  1  0  0  0  0
 22 55  1  0  0  0  0
 23 25  2  0  0  0  0
 23 56  1  0  0  0  0
 24 27  2  0  0  0  0
 24 57  1  0  0  0  0
 25 27  1  0  0  0  0
 25 58  1  0  0  0  0
 26 30  1  0  0  0  0
 26 59  1  0  0  0  0
 26 60  1  0  0  0  0
 27 29  1  0  0  0  0
 28 61  1  0  0  0  0
 28 62  1  0  0  0  0
 28 63  1  0  0  0  0
 30 31  2  0  0  0  0
 30 64  1  0  0  0  0
 31 65  1  0  0  0  0
 31 66  1  0  0  0  0
M  END
> <PUBCHEM_COMPOUND_CID>
22567773

> <PUBCHEM_COMPOUND_CANONICALIZED>
1

> <PUBCHEM_CACTVS_COMPLEXITY>
632

> <PUBCHEM_CACTVS_HBOND_ACCEPTOR>
7

> <PUBCHEM_CACTVS_HBOND_DONOR>
0

> <PUBCHEM_CACTVS_ROTATABLE_BOND>
11

> <PUBCHEM_CACTVS_SUBSKEYS>
AAADcfB7MYBAAAAAAAAAAAAAAAAAAAAAAAAwYAAAAAAAAAABAAAAHQQAQAAADSjBWBQyAYMAAAKAAiBCAHDCABAgAAAIiBgIAIgIICKAkRCEIAAggACIiAcQgMAOEAAAAAAAAAAwAAAAAAAAAAAAAAAAAA==

> <PUBCHEM_IUPAC_OPENEYE_NAME>
N-[4-[5-[allyl(methyl)amino]pentyl]cyclohexyl]-N-methyl-4-(trifluoromethyl)benzenesulfonamide

> <PUBCHEM_IUPAC_CAS_NAME>
N-methyl-N-[4-[5-[methyl(prop-2-enyl)amino]pentyl]cyclohexyl]-4-(trifluoromethyl)benzenesulfonamide

> <PUBCHEM_IUPAC_NAME>
N-methyl-N-[4-[5-[methyl(prop-2-enyl)amino]pentyl]cyclohexyl]-4-(trifluoromethyl)benzenesulfonamide

> <PUBCHEM_IUPAC_SYSTEMATIC_NAME>
N-methyl-N-[4-[5-[methyl(prop-2-enyl)amino]pentyl]cyclohexyl]-4-(trifluoromethyl)benzenesulfonamide

> <PUBCHEM_IUPAC_TRADITIONAL_NAME>
N-[4-[5-[allyl(methyl)amino]pentyl]cyclohexyl]-N-methyl-4-(trifluoromethyl)benzenesulfonamide

> <PUBCHEM_IUPAC_INCHI>
InChI=1S/C23H35F3N2O2S/c1-4-17-27(2)18-7-5-6-8-19-9-13-21(14-10-19)28(3)31(29,30)22-15-11-20(12-16-22)23(24,25)26/h4,11-12,15-16,19,21H,1,5-10,13-14,17-18H2,2-3H3

> <PUBCHEM_IUPAC_INCHIKEY>
NHSFYDHCWSMLJA-UHFFFAOYSA-N

> <PUBCHEM_XLOGP3_AA>
6

> <PUBCHEM_EXACT_MASS>
460.237134

> <PUBCHEM_MOLECULAR_FORMULA>
C23H35F3N2O2S

> <PUBCHEM_MOLECULAR_WEIGHT>
460.59641

> <PUBCHEM_OPENEYE_CAN_SMILES>
CN(CCCCCC1CCC(CC1)N(C)S(=O)(=O)C2=CC=C(C=C2)C(F)(F)F)CC=C

> <PUBCHEM_OPENEYE_ISO_SMILES>
CN(CCCCCC1CCC(CC1)N(C)S(=O)(=O)C2=CC=C(C=C2)C(F)(F)F)CC=C

> <PUBCHEM_CACTVS_TPSA>
49

> <PUBCHEM_MONOISOTOPIC_WEIGHT>
460.237134

> <PUBCHEM_TOTAL_CHARGE>
0

> <PUBCHEM_HEAVY_ATOM_COUNT>
31

> <PUBCHEM_ATOM_DEF_STEREO_COUNT>
0

> <PUBCHEM_ATOM_UDEF_STEREO_COUNT>
0

> <PUBCHEM_BOND_DEF_STEREO_COUNT>
0

> <PUBCHEM_BOND_UDEF_STEREO_COUNT>
0

> <PUBCHEM_ISOTOPIC_ATOM_COUNT>
0

> <PUBCHEM_COMPONENT_COUNT>
1

> <PUBCHEM_CACTVS_TAUTO_COUNT>
1

> <PUBCHEM_COORDINATE_TYPE>
1 __ 5 __ 255

> <PUBCHEM_BONDANNOTATIONS>
20  22  8 __ 20  23  8 __ 22  24  8 __ 23  25  8 __ 24  27  8 __ 25  27  8 __ 

$$$$
