22568056
ChemmineR-0425141737XD

 70 71  0     1  0  0  0  0  0999 V2000
    3.0000   -2.3100    0.0000 S   0  0  0  0  0  0  0  0  0  0  0  0
    3.0000   -7.3100    0.0000 F   0  0  0  0  0  0  0  0  0  0  0  0
    2.0000   -6.3100    0.0000 F   0  0  0  0  0  0  0  0  0  0  0  0
    4.0000   -6.3100    0.0000 F   0  0  0  0  0  0  0  0  0  0  0  0
    4.0000   -2.3100    0.0000 O   0  0  0  0  0  0  0  0  0  0  0  0
    2.0000   -2.3100    0.0000 O   0  0  0  0  0  0  0  0  0  0  0  0
    6.4641    6.6900    0.0000 O   0  0  0  0  0  0  0  0  0  0  0  0
    9.9282    6.6900    0.0000 O   0  0  0  0  0  0  0  0  0  0  0  0
    3.0000   -1.3100    0.0000 N   0  0  3  0  0  0  0  0  0  0  0  0
    8.1962    4.6900    0.0000 N   0  0  0  0  0  0  0  0  0  0  0  0
    5.5981    0.1900    0.0000 C   0  0  0  0  0  0  0  0  0  0  0  0
    3.8660   -0.8100    0.0000 C   0  0  0  0  0  0  0  0  0  0  0  0
    4.7320    0.6900    0.0000 C   0  0  0  0  0  0  0  0  0  0  0  0
    5.5981   -0.8100    0.0000 C   0  0  0  0  0  0  0  0  0  0  0  0
    3.8660    0.1900    0.0000 C   0  0  0  0  0  0  0  0  0  0  0  0
    4.7320   -1.3100    0.0000 C   0  0  0  0  0  0  0  0  0  0  0  0
    6.4641    0.6900    0.0000 C   0  0  0  0  0  0  0  0  0  0  0  0
    6.4641    1.6900    0.0000 C   0  0  0  0  0  0  0  0  0  0  0  0
    7.3301    2.1900    0.0000 C   0  0  0  0  0  0  0  0  0  0  0  0
    2.1340   -0.8100    0.0000 C   0  0  0  0  0  0  0  0  0  0  0  0
    7.3301    3.1900    0.0000 C   0  0  0  0  0  0  0  0  0  0  0  0
    3.0000   -3.3100    0.0000 C   0  0  0  0  0  0  0  0  0  0  0  0
    8.1962    3.6900    0.0000 C   0  0  0  0  0  0  0  0  0  0  0  0
    2.1340   -3.8100    0.0000 C   0  0  0  0  0  0  0  0  0  0  0  0
    3.8660   -3.8100    0.0000 C   0  0  0  0  0  0  0  0  0  0  0  0
    9.0622    5.1900    0.0000 C   0  0  0  0  0  0  0  0  0  0  0  0
    7.3301    5.1900    0.0000 C   0  0  0  0  0  0  0  0  0  0  0  0
    2.1340   -4.8100    0.0000 C   0  0  0  0  0  0  0  0  0  0  0  0
    3.8660   -4.8100    0.0000 C   0  0  0  0  0  0  0  0  0  0  0  0
    3.0000   -5.3100    0.0000 C   0  0  0  0  0  0  0  0  0  0  0  0
    9.0622    6.1900    0.0000 C   0  0  0  0  0  0  0  0  0  0  0  0
    7.3301    6.1900    0.0000 C   0  0  0  0  0  0  0  0  0  0  0  0
    3.0000   -6.3100    0.0000 C   0  0  0  0  0  0  0  0  0  0  0  0
    5.5981    0.8100    0.0000 H   0  0  0  0  0  0  0  0  0  0  0  0
    3.8660   -1.4300    0.0000 H   0  0  0  0  0  0  0  0  0  0  0  0
    5.1306    1.1650    0.0000 H   0  0  0  0  0  0  0  0  0  0  0  0
    4.3335    1.1650    0.0000 H   0  0  0  0  0  0  0  0  0  0  0  0
    5.8101   -1.3926    0.0000 H   0  0  0  0  0  0  0  0  0  0  0  0
    6.2087   -0.7023    0.0000 H   0  0  0  0  0  0  0  0  0  0  0  0
    3.6540    0.7726    0.0000 H   0  0  0  0  0  0  0  0  0  0  0  0
    3.2554    0.0823    0.0000 H   0  0  0  0  0  0  0  0  0  0  0  0
    4.3335   -1.7850    0.0000 H   0  0  0  0  0  0  0  0  0  0  0  0
    5.1306   -1.7850    0.0000 H   0  0  0  0  0  0  0  0  0  0  0  0
    6.6762    0.1074    0.0000 H   0  0  0  0  0  0  0  0  0  0  0  0
    7.0747    0.7977    0.0000 H   0  0  0  0  0  0  0  0  0  0  0  0
    6.2520    2.2726    0.0000 H   0  0  0  0  0  0  0  0  0  0  0  0
    5.8535    1.5823    0.0000 H   0  0  0  0  0  0  0  0  0  0  0  0
    7.5422    1.6074    0.0000 H   0  0  0  0  0  0  0  0  0  0  0  0
    7.9407    2.2977    0.0000 H   0  0  0  0  0  0  0  0  0  0  0  0
    2.4440   -0.2731    0.0000 H   0  0  0  0  0  0  0  0  0  0  0  0
    1.5970   -0.5000    0.0000 H   0  0  0  0  0  0  0  0  0  0  0  0
    1.8240   -1.3469    0.0000 H   0  0  0  0  0  0  0  0  0  0  0  0
    7.1181    3.7726    0.0000 H   0  0  0  0  0  0  0  0  0  0  0  0
    6.7196    3.0823    0.0000 H   0  0  0  0  0  0  0  0  0  0  0  0
    8.4082    3.1074    0.0000 H   0  0  0  0  0  0  0  0  0  0  0  0
    8.8067    3.7977    0.0000 H   0  0  0  0  0  0  0  0  0  0  0  0
    1.5970   -3.5000    0.0000 H   0  0  0  0  0  0  0  0  0  0  0  0
    4.4030   -3.5000    0.0000 H   0  0  0  0  0  0  0  0  0  0  0  0
    6.7196    5.2977    0.0000 H   0  0  0  0  0  0  0  0  0  0  0  0
    7.1181    4.6074    0.0000 H   0  0  0  0  0  0  0  0  0  0  0  0
    9.2742    4.6074    0.0000 H   0  0  0  0  0  0  0  0  0  0  0  0
    9.6728    5.2977    0.0000 H   0  0  0  0  0  0  0  0  0  0  0  0
    1.5970   -5.1200    0.0000 H   0  0  0  0  0  0  0  0  0  0  0  0
    4.4030   -5.1200    0.0000 H   0  0  0  0  0  0  0  0  0  0  0  0
    7.9407    6.0823    0.0000 H   0  0  0  0  0  0  0  0  0  0  0  0
    7.5422    6.7726    0.0000 H   0  0  0  0  0  0  0  0  0  0  0  0
    8.8501    6.7726    0.0000 H   0  0  0  0  0  0  0  0  0  0  0  0
    8.4516    6.0823    0.0000 H   0  0  0  0  0  0  0  0  0  0  0  0
    6.4641    7.3100    0.0000 H   0  0  0  0  0  0  0  0  0  0  0  0
    9.9282    7.3100    0.0000 H   0  0  0  0  0  0  0  0  0  0  0  0
  1  5  2  0  0  0  0
  1  6  2  0  0  0  0
  1  9  1  0  0  0  0
  1 22  1  0  0  0  0
  2 33  1  0  0  0  0
  3 33  1  0  0  0  0
  4 33  1  0  0  0  0
  7 32  1  0  0  0  0
  7 69  1  0  0  0  0
  8 31  1  0  0  0  0
  8 70  1  0  0  0  0
  9 12  1  0  0  0  0
  9 20  1  0  0  0  0
 10 23  1  0  0  0  0
 10 26  1  0  0  0  0
 10 27  1  0  0  0  0
 11 13  1  0  0  0  0
 11 14  1  0  0  0  0
 11 17  1  0  0  0  0
 11 34  1  0  0  0  0
 12 15  1  0  0  0  0
 12 16  1  0  0  0  0
 12 35  1  0  0  0  0
 13 15  1  0  0  0  0
 13 36  1  0  0  0  0
 13 37  1  0  0  0  0
 14 16  1  0  0  0  0
 14 38  1  0  0  0  0
 14 39  1  0  0  0  0
 15 40  1  0  0  0  0
 15 41  1  0  0  0  0
 16 42  1  0  0  0  0
 16 43  1  0  0  0  0
 17 18  1  0  0  0  0
 17 44  1  0  0  0  0
 17 45  1  0  0  0  0
 18 19  1  0  0  0  0
 18 46  1  0  0  0  0
 18 47  1  0  0  0  0
 19 21  1  0  0  0  0
 19 48  1  0  0  0  0
 19 49  1  0  0  0  0
 20 50  1  0  0  0  0
 20 51  1  0  0  0  0
 20 52  1  0  0  0  0
 21 23  1  0  0  0  0
 21 53  1  0  0  0  0
 21 54  1  0  0  0  0
 22 24  2  0  0  0  0
 22 25  1  0  0  0  0
 23 55  1  0  0  0  0
 23 56  1  0  0  0  0
 24 28  1  0  0  0  0
 24 57  1  0  0  0  0
 25 29  2  0  0  0  0
 25 58  1  0  0  0  0
 26 31  1  0  0  0  0
 26 61  1  0  0  0  0
 26 62  1  0  0  0  0
 27 32  1  0  0  0  0
 27 59  1  0  0  0  0
 27 60  1  0  0  0  0
 28 30  2  0  0  0  0
 28 63  1  0  0  0  0
 29 30  1  0  0  0  0
 29 64  1  0  0  0  0
 30 33  1  0  0  0  0
 31 67  1  0  0  0  0
 31 68  1  0  0  0  0
 32 65  1  0  0  0  0
 32 66  1  0  0  0  0
M  END
> <PUBCHEM_COMPOUND_CID>
22568056

> <PUBCHEM_COMPOUND_CANONICALIZED>
1

> <PUBCHEM_CACTVS_COMPLEXITY>
635

> <PUBCHEM_CACTVS_HBOND_ACCEPTOR>
9

> <PUBCHEM_CACTVS_HBOND_DONOR>
2

> <PUBCHEM_CACTVS_ROTATABLE_BOND>
13

> <PUBCHEM_CACTVS_SUBSKEYS>
AAADcfB7OYBAAAAAAAAAAAAAAAAAAAAAAAAwYAAAAAAAAAABAAAAHwQASAAADSjh2BYyAYMAAgKAAiBCAHBCABAgAAAIiBgIAIgKMCKAkRCEIAAggACYiAcQgMAOEAAAAAAAAAAwAAAAAAAAAAAAAAAAAA==

> <PUBCHEM_IUPAC_OPENEYE_NAME>
N-[4-[5-[bis(2-hydroxyethyl)amino]pentyl]cyclohexyl]-N-methyl-4-(trifluoromethyl)benzenesulfonamide

> <PUBCHEM_IUPAC_CAS_NAME>
N-[4-[5-[bis(2-hydroxyethyl)amino]pentyl]cyclohexyl]-N-methyl-4-(trifluoromethyl)benzenesulfonamide

> <PUBCHEM_IUPAC_NAME>
N-[4-[5-[bis(2-hydroxyethyl)amino]pentyl]cyclohexyl]-N-methyl-4-(trifluoromethyl)benzenesulfonamide

> <PUBCHEM_IUPAC_SYSTEMATIC_NAME>
N-[4-[5-[bis(2-hydroxyethyl)amino]pentyl]cyclohexyl]-N-methyl-4-(trifluoromethyl)benzenesulfonamide

> <PUBCHEM_IUPAC_TRADITIONAL_NAME>
N-[4-[5-[bis(2-hydroxyethyl)amino]pentyl]cyclohexyl]-N-methyl-4-(trifluoromethyl)benzenesulfonamide

> <PUBCHEM_IUPAC_INCHI>
InChI=1S/C23H37F3N2O4S/c1-27(33(31,32)22-12-8-20(9-13-22)23(24,25)26)21-10-6-19(7-11-21)5-3-2-4-14-28(15-17-29)16-18-30/h8-9,12-13,19,21,29-30H,2-7,10-11,14-18H2,1H3

> <PUBCHEM_IUPAC_INCHIKEY>
KWDTUWVYRBUKHP-UHFFFAOYSA-N

> <PUBCHEM_XLOGP3_AA>
3.9

> <PUBCHEM_EXACT_MASS>
494.242613

> <PUBCHEM_MOLECULAR_FORMULA>
C23H37F3N2O4S

> <PUBCHEM_MOLECULAR_WEIGHT>
494.61109

> <PUBCHEM_OPENEYE_CAN_SMILES>
CN(C1CCC(CC1)CCCCCN(CCO)CCO)S(=O)(=O)C2=CC=C(C=C2)C(F)(F)F

> <PUBCHEM_OPENEYE_ISO_SMILES>
CN(C1CCC(CC1)CCCCCN(CCO)CCO)S(=O)(=O)C2=CC=C(C=C2)C(F)(F)F

> <PUBCHEM_CACTVS_TPSA>
89.5

> <PUBCHEM_MONOISOTOPIC_WEIGHT>
494.242613

> <PUBCHEM_TOTAL_CHARGE>
0

> <PUBCHEM_HEAVY_ATOM_COUNT>
33

> <PUBCHEM_ATOM_DEF_STEREO_COUNT>
0

> <PUBCHEM_ATOM_UDEF_STEREO_COUNT>
0

> <PUBCHEM_BOND_DEF_STEREO_COUNT>
0

> <PUBCHEM_BOND_UDEF_STEREO_COUNT>
0

> <PUBCHEM_ISOTOPIC_ATOM_COUNT>
0

> <PUBCHEM_COMPONENT_COUNT>
1

> <PUBCHEM_CACTVS_TAUTO_COUNT>
1

> <PUBCHEM_COORDINATE_TYPE>
1 __ 5 __ 255

> <PUBCHEM_BONDANNOTATIONS>
22  24  8 __ 22  25  8 __ 24  28  8 __ 25  29  8 __ 28  30  8 __ 29  30  8 __ 

$$$$
