22567916
ChemmineR-0425141737XD

 74 75  0     1  0  0  0  0  0999 V2000
    3.0000   -1.5000    0.0000 S   0  0  0  0  0  0  0  0  0  0  0  0
    3.0000   -6.5000    0.0000 F   0  0  0  0  0  0  0  0  0  0  0  0
    2.0000   -5.5000    0.0000 F   0  0  0  0  0  0  0  0  0  0  0  0
    4.0000   -5.5000    0.0000 F   0  0  0  0  0  0  0  0  0  0  0  0
    4.0000   -1.5000    0.0000 O   0  0  0  0  0  0  0  0  0  0  0  0
    2.0000   -1.5000    0.0000 O   0  0  0  0  0  0  0  0  0  0  0  0
    3.0000   -0.5000    0.0000 N   0  0  3  0  0  0  0  0  0  0  0  0
    9.0622    5.0000    0.0000 N   0  0  0  0  0  0  0  0  0  0  0  0
    5.5981    1.0000    0.0000 C   0  0  0  0  0  0  0  0  0  0  0  0
    3.8660    0.0000    0.0000 C   0  0  0  0  0  0  0  0  0  0  0  0
    4.7320    1.5000    0.0000 C   0  0  0  0  0  0  0  0  0  0  0  0
    5.5981    0.0000    0.0000 C   0  0  0  0  0  0  0  0  0  0  0  0
    3.8660    1.0000    0.0000 C   0  0  0  0  0  0  0  0  0  0  0  0
    4.7320   -0.5000    0.0000 C   0  0  0  0  0  0  0  0  0  0  0  0
    6.4641    1.5000    0.0000 C   0  0  0  0  0  0  0  0  0  0  0  0
    6.4641    2.5000    0.0000 C   0  0  0  0  0  0  0  0  0  0  0  0
    7.3301    3.0000    0.0000 C   0  0  0  0  0  0  0  0  0  0  0  0
    8.1962    4.5000    0.0000 C   0  0  0  0  0  0  0  0  0  0  0  0
    7.3301    4.0000    0.0000 C   0  0  0  0  0  0  0  0  0  0  0  0
    2.1340    0.0000    0.0000 C   0  0  0  0  0  0  0  0  0  0  0  0
    7.6962    5.3660    0.0000 C   0  0  0  0  0  0  0  0  0  0  0  0
    8.6962    3.6340    0.0000 C   0  0  0  0  0  0  0  0  0  0  0  0
    9.0622    6.0000    0.0000 C   0  0  0  0  0  0  0  0  0  0  0  0
    9.9282    4.5000    0.0000 C   0  0  0  0  0  0  0  0  0  0  0  0
    3.0000   -2.5000    0.0000 C   0  0  0  0  0  0  0  0  0  0  0  0
    9.9282    6.5000    0.0000 C   0  0  0  0  0  0  0  0  0  0  0  0
   10.7942    5.0000    0.0000 C   0  0  0  0  0  0  0  0  0  0  0  0
    2.1340   -3.0000    0.0000 C   0  0  0  0  0  0  0  0  0  0  0  0
    3.8660   -3.0000    0.0000 C   0  0  0  0  0  0  0  0  0  0  0  0
    2.1340   -4.0000    0.0000 C   0  0  0  0  0  0  0  0  0  0  0  0
    3.8660   -4.0000    0.0000 C   0  0  0  0  0  0  0  0  0  0  0  0
    3.0000   -4.5000    0.0000 C   0  0  0  0  0  0  0  0  0  0  0  0
    3.0000   -5.5000    0.0000 C   0  0  0  0  0  0  0  0  0  0  0  0
    5.5981    1.6200    0.0000 H   0  0  0  0  0  0  0  0  0  0  0  0
    3.8660   -0.6200    0.0000 H   0  0  0  0  0  0  0  0  0  0  0  0
    5.8101   -0.5826    0.0000 H   0  0  0  0  0  0  0  0  0  0  0  0
    6.2087    0.1077    0.0000 H   0  0  0  0  0  0  0  0  0  0  0  0
    5.1306    1.9750    0.0000 H   0  0  0  0  0  0  0  0  0  0  0  0
    4.3335    1.9750    0.0000 H   0  0  0  0  0  0  0  0  0  0  0  0
    4.3335   -0.9749    0.0000 H   0  0  0  0  0  0  0  0  0  0  0  0
    5.1306   -0.9749    0.0000 H   0  0  0  0  0  0  0  0  0  0  0  0
    3.6540    1.5826    0.0000 H   0  0  0  0  0  0  0  0  0  0  0  0
    3.2554    0.8923    0.0000 H   0  0  0  0  0  0  0  0  0  0  0  0
    6.6762    0.9174    0.0000 H   0  0  0  0  0  0  0  0  0  0  0  0
    7.0747    1.6077    0.0000 H   0  0  0  0  0  0  0  0  0  0  0  0
    6.2520    3.0826    0.0000 H   0  0  0  0  0  0  0  0  0  0  0  0
    5.8535    2.3923    0.0000 H   0  0  0  0  0  0  0  0  0  0  0  0
    7.5422    2.4174    0.0000 H   0  0  0  0  0  0  0  0  0  0  0  0
    7.9407    3.1077    0.0000 H   0  0  0  0  0  0  0  0  0  0  0  0
    7.1181    4.5826    0.0000 H   0  0  0  0  0  0  0  0  0  0  0  0
    6.7196    3.8923    0.0000 H   0  0  0  0  0  0  0  0  0  0  0  0
    2.4440    0.5369    0.0000 H   0  0  0  0  0  0  0  0  0  0  0  0
    1.5970    0.3100    0.0000 H   0  0  0  0  0  0  0  0  0  0  0  0
    1.8240   -0.5369    0.0000 H   0  0  0  0  0  0  0  0  0  0  0  0
    8.1592    3.3240    0.0000 H   0  0  0  0  0  0  0  0  0  0  0  0
    9.0062    3.0970    0.0000 H   0  0  0  0  0  0  0  0  0  0  0  0
    9.2331    3.9440    0.0000 H   0  0  0  0  0  0  0  0  0  0  0  0
    8.2331    5.6760    0.0000 H   0  0  0  0  0  0  0  0  0  0  0  0
    7.3862    5.9030    0.0000 H   0  0  0  0  0  0  0  0  0  0  0  0
    7.1592    5.0560    0.0000 H   0  0  0  0  0  0  0  0  0  0  0  0
    8.8501    6.5826    0.0000 H   0  0  0  0  0  0  0  0  0  0  0  0
    8.4516    5.8923    0.0000 H   0  0  0  0  0  0  0  0  0  0  0  0
    9.5297    4.0250    0.0000 H   0  0  0  0  0  0  0  0  0  0  0  0
   10.3267    4.0250    0.0000 H   0  0  0  0  0  0  0  0  0  0  0  0
   10.2382    5.9631    0.0000 H   0  0  0  0  0  0  0  0  0  0  0  0
   10.4651    6.8100    0.0000 H   0  0  0  0  0  0  0  0  0  0  0  0
    9.6182    7.0369    0.0000 H   0  0  0  0  0  0  0  0  0  0  0  0
   11.1042    4.4631    0.0000 H   0  0  0  0  0  0  0  0  0  0  0  0
   11.3312    5.3100    0.0000 H   0  0  0  0  0  0  0  0  0  0  0  0
   10.4842    5.5369    0.0000 H   0  0  0  0  0  0  0  0  0  0  0  0
    1.5970   -2.6900    0.0000 H   0  0  0  0  0  0  0  0  0  0  0  0
    4.4030   -2.6900    0.0000 H   0  0  0  0  0  0  0  0  0  0  0  0
    1.5970   -4.3100    0.0000 H   0  0  0  0  0  0  0  0  0  0  0  0
    4.4030   -4.3100    0.0000 H   0  0  0  0  0  0  0  0  0  0  0  0
  1  5  2  0  0  0  0
  1  6  2  0  0  0  0
  1  7  1  0  0  0  0
  1 25  1  0  0  0  0
  2 33  1  0  0  0  0
  3 33  1  0  0  0  0
  4 33  1  0  0  0  0
  7 10  1  0  0  0  0
  7 20  1  0  0  0  0
  8 18  1  0  0  0  0
  8 23  1  0  0  0  0
  8 24  1  0  0  0  0
  9 11  1  0  0  0  0
  9 12  1  0  0  0  0
  9 15  1  0  0  0  0
  9 34  1  0  0  0  0
 10 13  1  0  0  0  0
 10 14  1  0  0  0  0
 10 35  1  0  0  0  0
 11 13  1  0  0  0  0
 11 38  1  0  0  0  0
 11 39  1  0  0  0  0
 12 14  1  0  0  0  0
 12 36  1  0  0  0  0
 12 37  1  0  0  0  0
 13 42  1  0  0  0  0
 13 43  1  0  0  0  0
 14 40  1  0  0  0  0
 14 41  1  0  0  0  0
 15 16  1  0  0  0  0
 15 44  1  0  0  0  0
 15 45  1  0  0  0  0
 16 17  1  0  0  0  0
 16 46  1  0  0  0  0
 16 47  1  0  0  0  0
 17 19  1  0  0  0  0
 17 48  1  0  0  0  0
 17 49  1  0  0  0  0
 18 19  1  0  0  0  0
 18 21  1  0  0  0  0
 18 22  1  0  0  0  0
 19 50  1  0  0  0  0
 19 51  1  0  0  0  0
 20 52  1  0  0  0  0
 20 53  1  0  0  0  0
 20 54  1  0  0  0  0
 21 58  1  0  0  0  0
 21 59  1  0  0  0  0
 21 60  1  0  0  0  0
 22 55  1  0  0  0  0
 22 56  1  0  0  0  0
 22 57  1  0  0  0  0
 23 26  1  0  0  0  0
 23 61  1  0  0  0  0
 23 62  1  0  0  0  0
 24 27  1  0  0  0  0
 24 63  1  0  0  0  0
 24 64  1  0  0  0  0
 25 28  2  0  0  0  0
 25 29  1  0  0  0  0
 26 65  1  0  0  0  0
 26 66  1  0  0  0  0
 26 67  1  0  0  0  0
 27 68  1  0  0  0  0
 27 69  1  0  0  0  0
 27 70  1  0  0  0  0
 28 30  1  0  0  0  0
 28 71  1  0  0  0  0
 29 31  2  0  0  0  0
 29 72  1  0  0  0  0
 30 32  2  0  0  0  0
 30 73  1  0  0  0  0
 31 32  1  0  0  0  0
 31 74  1  0  0  0  0
 32 33  1  0  0  0  0
M  END
> <PUBCHEM_COMPOUND_CID>
22567916

> <PUBCHEM_COMPOUND_CANONICALIZED>
1

> <PUBCHEM_CACTVS_COMPLEXITY>
671

> <PUBCHEM_CACTVS_HBOND_ACCEPTOR>
7

> <PUBCHEM_CACTVS_HBOND_DONOR>
0

> <PUBCHEM_CACTVS_ROTATABLE_BOND>
11

> <PUBCHEM_CACTVS_SUBSKEYS>
AAADcfB7MYBAAAAAAAAAAAAAAAAAAAAAAAAwYAAAAAAAAAABAAAAHQQAQAAADajBWBQyAYMAAAKAAiBCAHBCABAgAAAIiBgIAIgIICKAkRCEIAAggACIiAcQgMAOEAAAAAAAAAAwAAAAAAAAAAAAAAAAAA==

> <PUBCHEM_IUPAC_OPENEYE_NAME>
N-[4-[5-(diethylamino)-5-methyl-hexyl]cyclohexyl]-N-methyl-4-(trifluoromethyl)benzenesulfonamide

> <PUBCHEM_IUPAC_CAS_NAME>
N-[4-[5-(diethylamino)-5-methylhexyl]cyclohexyl]-N-methyl-4-(trifluoromethyl)benzenesulfonamide

> <PUBCHEM_IUPAC_NAME>
N-[4-[5-(diethylamino)-5-methylhexyl]cyclohexyl]-N-methyl-4-(trifluoromethyl)benzenesulfonamide

> <PUBCHEM_IUPAC_SYSTEMATIC_NAME>
N-[4-[5-(diethylamino)-5-methyl-hexyl]cyclohexyl]-N-methyl-4-(trifluoromethyl)benzenesulfonamide

> <PUBCHEM_IUPAC_TRADITIONAL_NAME>
N-[4-[5-(diethylamino)-5-methyl-hexyl]cyclohexyl]-N-methyl-4-(trifluoromethyl)benzenesulfonamide

> <PUBCHEM_IUPAC_INCHI>
InChI=1S/C25H41F3N2O2S/c1-6-30(7-2)24(3,4)19-9-8-10-20-11-15-22(16-12-20)29(5)33(31,32)23-17-13-21(14-18-23)25(26,27)28/h13-14,17-18,20,22H,6-12,15-16,19H2,1-5H3

> <PUBCHEM_IUPAC_INCHIKEY>
KHIFRQHKENLDSJ-UHFFFAOYSA-N

> <PUBCHEM_XLOGP3_AA>
6.7

> <PUBCHEM_EXACT_MASS>
490.284084

> <PUBCHEM_MOLECULAR_FORMULA>
C25H41F3N2O2S

> <PUBCHEM_MOLECULAR_WEIGHT>
490.66545

> <PUBCHEM_OPENEYE_CAN_SMILES>
CCN(CC)C(C)(C)CCCCC1CCC(CC1)N(C)S(=O)(=O)C2=CC=C(C=C2)C(F)(F)F

> <PUBCHEM_OPENEYE_ISO_SMILES>
CCN(CC)C(C)(C)CCCCC1CCC(CC1)N(C)S(=O)(=O)C2=CC=C(C=C2)C(F)(F)F

> <PUBCHEM_CACTVS_TPSA>
49

> <PUBCHEM_MONOISOTOPIC_WEIGHT>
490.284084

> <PUBCHEM_TOTAL_CHARGE>
0

> <PUBCHEM_HEAVY_ATOM_COUNT>
33

> <PUBCHEM_ATOM_DEF_STEREO_COUNT>
0

> <PUBCHEM_ATOM_UDEF_STEREO_COUNT>
0

> <PUBCHEM_BOND_DEF_STEREO_COUNT>
0

> <PUBCHEM_BOND_UDEF_STEREO_COUNT>
0

> <PUBCHEM_ISOTOPIC_ATOM_COUNT>
0

> <PUBCHEM_COMPONENT_COUNT>
1

> <PUBCHEM_CACTVS_TAUTO_COUNT>
1

> <PUBCHEM_COORDINATE_TYPE>
1 __ 5 __ 255

> <PUBCHEM_BONDANNOTATIONS>
25  28  8 __ 25  29  8 __ 28  30  8 __ 29  31  8 __ 30  32  8 __ 31  32  8 __ 

$$$$
