44341981
ChemmineR-0425141737XD

 67 68  0     1  0  0  0  0  0999 V2000
   13.9841    6.2268    0.0000 Br   0  0  0  0  0  0  0  0  0  0  0  0
   12.7415    0.8153    0.0000 S    0  0  0  0  0  0  0  0  0  0  0  0
    9.1972    0.6200    0.0000 O    0  0  0  0  0  0  0  0  0  0  0  0
    9.6391    9.7255    0.0000 O    0  0  0  0  0  0  0  0  0  0  0  0
    5.3089    9.2255    0.0000 O    0  0  0  0  0  0  0  0  0  0  0  0
    8.7730    8.2255    0.0000 O    0  0  0  0  0  0  0  0  0  0  0  0
    6.1750   10.7255    0.0000 O    0  0  0  0  0  0  0  0  0  0  0  0
    3.1350    1.1200    0.0000 N    0  0  3  0  0  0  0  0  0  0  0  0
   13.3251    1.6200    0.0000 N    0  0  0  0  0  0  0  0  0  0  0  0
    5.7331    0.6200    0.0000 C    0  0  0  0  0  0  0  0  0  0  0  0
    4.8671    1.1200    0.0000 C    0  0  0  0  0  0  0  0  0  0  0  0
    6.5991    1.1200    0.0000 C    0  0  0  0  0  0  0  0  0  0  0  0
    4.0010    0.6200    0.0000 C    0  0  0  0  0  0  0  0  0  0  0  0
    7.4651    0.6200    0.0000 C    0  0  0  0  0  0  0  0  0  0  0  0
    8.3312    1.1200    0.0000 C    0  0  0  0  0  0  0  0  0  0  0  0
    2.2690    0.6200    0.0000 C    0  0  0  0  0  0  0  0  0  0  0  0
    3.1350    2.1200    0.0000 C    0  0  0  0  0  0  0  0  0  0  0  0
   10.0632    1.1200    0.0000 C    0  0  0  0  0  0  0  0  0  0  0  0
    1.4030    1.1200    0.0000 C    0  0  0  0  0  0  0  0  0  0  0  0
   11.7953    2.1200    0.0000 C    0  0  0  0  0  0  0  0  0  0  0  0
   11.7953    1.1200    0.0000 C    0  0  0  0  0  0  0  0  0  0  0  0
   10.9292    0.6200    0.0000 C    0  0  0  0  0  0  0  0  0  0  0  0
   10.0632    2.1200    0.0000 C    0  0  0  0  0  0  0  0  0  0  0  0
   10.9292    2.6200    0.0000 C    0  0  0  0  0  0  0  0  0  0  0  0
   12.7415    2.4247    0.0000 C    0  0  0  0  0  0  0  0  0  0  0  0
   13.0521    3.3752    0.0000 C    0  0  0  0  0  0  0  0  0  0  0  0
    0.5369    0.6200    0.0000 C    0  0  0  0  0  0  0  0  0  0  0  0
   14.0307    3.5815    0.0000 C    0  0  0  0  0  0  0  0  0  0  0  0
   12.3843    4.1196    0.0000 C    0  0  0  0  0  0  0  0  0  0  0  0
   14.3413    4.5320    0.0000 C    0  0  0  0  0  0  0  0  0  0  0  0
   12.6950    5.0701    0.0000 C    0  0  0  0  0  0  0  0  0  0  0  0
   13.6735    5.2763    0.0000 C    0  0  0  0  0  0  0  0  0  0  0  0
    7.0410    9.2255    0.0000 C    0  0  0  0  0  0  0  0  0  0  0  0
    7.9070    9.7255    0.0000 C    0  0  0  0  0  0  0  0  0  0  0  0
    6.1750    9.7255    0.0000 C    0  0  0  0  0  0  0  0  0  0  0  0
    8.7730    9.2255    0.0000 C    0  0  0  0  0  0  0  0  0  0  0  0
    5.3346    0.1451    0.0000 H    0  0  0  0  0  0  0  0  0  0  0  0
    6.1316    0.1451    0.0000 H    0  0  0  0  0  0  0  0  0  0  0  0
    5.2656    1.5950    0.0000 H    0  0  0  0  0  0  0  0  0  0  0  0
    4.4685    1.5950    0.0000 H    0  0  0  0  0  0  0  0  0  0  0  0
    6.9976    1.5950    0.0000 H    0  0  0  0  0  0  0  0  0  0  0  0
    6.2006    1.5950    0.0000 H    0  0  0  0  0  0  0  0  0  0  0  0
    3.6025    0.1451    0.0000 H    0  0  0  0  0  0  0  0  0  0  0  0
    4.3996    0.1451    0.0000 H    0  0  0  0  0  0  0  0  0  0  0  0
    7.0666    0.1451    0.0000 H    0  0  0  0  0  0  0  0  0  0  0  0
    7.8637    0.1451    0.0000 H    0  0  0  0  0  0  0  0  0  0  0  0
    8.7297    1.5950    0.0000 H    0  0  0  0  0  0  0  0  0  0  0  0
    7.9326    1.5950    0.0000 H    0  0  0  0  0  0  0  0  0  0  0  0
    1.8705    0.1451    0.0000 H    0  0  0  0  0  0  0  0  0  0  0  0
    2.6675    0.1451    0.0000 H    0  0  0  0  0  0  0  0  0  0  0  0
    3.7550    2.1200    0.0000 H    0  0  0  0  0  0  0  0  0  0  0  0
    3.1350    2.7400    0.0000 H    0  0  0  0  0  0  0  0  0  0  0  0
    2.5150    2.1200    0.0000 H    0  0  0  0  0  0  0  0  0  0  0  0
    1.4030    1.7400    0.0000 H    0  0  0  0  0  0  0  0  0  0  0  0
   10.9292    0.0000    0.0000 H    0  0  0  0  0  0  0  0  0  0  0  0
    9.5263    2.4300    0.0000 H    0  0  0  0  0  0  0  0  0  0  0  0
   10.9292    3.2400    0.0000 H    0  0  0  0  0  0  0  0  0  0  0  0
    0.0000    0.9300    0.0000 H    0  0  0  0  0  0  0  0  0  0  0  0
    0.5369    0.0000    0.0000 H    0  0  0  0  0  0  0  0  0  0  0  0
   14.4447    3.1200    0.0000 H    0  0  0  0  0  0  0  0  0  0  0  0
   11.7776    3.9917    0.0000 H    0  0  0  0  0  0  0  0  0  0  0  0
   14.9480    4.6598    0.0000 H    0  0  0  0  0  0  0  0  0  0  0  0
   12.2809    5.5315    0.0000 H    0  0  0  0  0  0  0  0  0  0  0  0
    7.0410    8.6055    0.0000 H    0  0  0  0  0  0  0  0  0  0  0  0
    7.9070   10.3455    0.0000 H    0  0  0  0  0  0  0  0  0  0  0  0
   10.1760    9.4155    0.0000 H    0  0  0  0  0  0  0  0  0  0  0  0
    4.7720    9.5355    0.0000 H    0  0  0  0  0  0  0  0  0  0  0  0
  1 32  1  0  0  0  0
  2  9  1  0  0  0  0
  2 21  1  0  0  0  0
  3 15  1  0  0  0  0
  3 18  1  0  0  0  0
  4 36  1  0  0  0  0
  4 66  1  0  0  0  0
  5 35  1  0  0  0  0
  5 67  1  0  0  0  0
  6 36  2  0  0  0  0
  7 35  2  0  0  0  0
  8 13  1  0  0  0  0
  8 16  1  0  0  0  0
  8 17  1  0  0  0  0
  9 25  2  0  0  0  0
 10 11  1  0  0  0  0
 10 12  1  0  0  0  0
 10 37  1  0  0  0  0
 10 38  1  0  0  0  0
 11 13  1  0  0  0  0
 11 39  1  0  0  0  0
 11 40  1  0  0  0  0
 12 14  1  0  0  0  0
 12 41  1  0  0  0  0
 12 42  1  0  0  0  0
 13 43  1  0  0  0  0
 13 44  1  0  0  0  0
 14 15  1  0  0  0  0
 14 45  1  0  0  0  0
 14 46  1  0  0  0  0
 15 47  1  0  0  0  0
 15 48  1  0  0  0  0
 16 19  1  0  0  0  0
 16 49  1  0  0  0  0
 16 50  1  0  0  0  0
 17 51  1  0  0  0  0
 17 52  1  0  0  0  0
 17 53  1  0  0  0  0
 18 22  2  0  0  0  0
 18 23  1  0  0  0  0
 19 27  2  0  0  0  0
 19 54  1  0  0  0  0
 20 21  2  0  0  0  0
 20 24  1  0  0  0  0
 20 25  1  0  0  0  0
 21 22  1  0  0  0  0
 22 55  1  0  0  0  0
 23 24  2  0  0  0  0
 23 56  1  0  0  0  0
 24 57  1  0  0  0  0
 25 26  1  0  0  0  0
 26 28  2  0  0  0  0
 26 29  1  0  0  0  0
 27 58  1  0  0  0  0
 27 59  1  0  0  0  0
 28 30  1  0  0  0  0
 28 60  1  0  0  0  0
 29 31  2  0  0  0  0
 29 61  1  0  0  0  0
 30 32  2  0  0  0  0
 30 62  1  0  0  0  0
 31 32  1  0  0  0  0
 31 63  1  0  0  0  0
 33 34  2  0  0  0  0
 33 35  1  0  0  0  0
 33 64  1  0  0  0  0
 34 36  1  0  0  0  0
 34 65  1  0  0  0  0
M  END
> <PUBCHEM_COMPOUND_CID>
44341981

> <PUBCHEM_COMPOUND_CANONICALIZED>
1

> <PUBCHEM_CACTVS_COMPLEXITY>
577

> <PUBCHEM_CACTVS_HBOND_ACCEPTOR>
8

> <PUBCHEM_CACTVS_HBOND_DONOR>
2

> <PUBCHEM_CACTVS_ROTATABLE_BOND>
13

> <PUBCHEM_CACTVS_SUBSKEYS>
AAADceB7OABAEAAAAAAAAAAAAAAAAWAAAAAwYAAAAAAAAFgB9AAAHgRASAABrAzh3gYyj9MABgCsAyTySACDCBAgIARImDguTPgMJqKEsZuGOCTkwBGI+5eQ0OEOIgAABAAEAABEAAAIAAgAAAAAAAAAAA==

> <PUBCHEM_IUPAC_OPENEYE_NAME>
N-allyl-6-[[3-(4-bromophenyl)-1,2-benzothiazol-6-yl]oxy]-N-methyl-hexan-1-amine;fumaric acid

> <PUBCHEM_IUPAC_CAS_NAME>
6-[[3-(4-bromophenyl)-1,2-benzothiazol-6-yl]oxy]-N-methyl-N-prop-2-enyl-1-hexanamine;(E)-2-butenedioic acid

> <PUBCHEM_IUPAC_NAME>
6-[[3-(4-bromophenyl)-1,2-benzothiazol-6-yl]oxy]-N-methyl-N-prop-2-enylhexan-1-amine;(E)-but-2-enedioic acid

> <PUBCHEM_IUPAC_SYSTEMATIC_NAME>
6-[[3-(4-bromophenyl)-1,2-benzothiazol-6-yl]oxy]-N-methyl-N-prop-2-enyl-hexan-1-amine;(E)-but-2-enedioic acid

> <PUBCHEM_IUPAC_TRADITIONAL_NAME>
allyl-[6-[[3-(4-bromophenyl)-1,2-benzothiazol-6-yl]oxy]hexyl]-methyl-amine;fumaric acid

> <PUBCHEM_IUPAC_INCHI>
InChI=1S/C23H27BrN2OS.C4H4O4/c1-3-14-26(2)15-6-4-5-7-16-27-20-12-13-21-22(17-20)28-25-23(21)18-8-10-19(24)11-9-18;5-3(6)1-2-4(7)8/h3,8-13,17H,1,4-7,14-16H2,2H3;1-2H,(H,5,6)(H,7,8)/b;2-1+

> <PUBCHEM_IUPAC_INCHIKEY>
JSJLJATXQGZYCY-WLHGVMLRSA-N

> <PUBCHEM_EXACT_MASS>
574.113705

> <PUBCHEM_MOLECULAR_FORMULA>
C27H31BrN2O5S

> <PUBCHEM_MOLECULAR_WEIGHT>
575.51444

> <PUBCHEM_OPENEYE_CAN_SMILES>
CN(CCCCCCOC1=CC2=C(C=C1)C(=NS2)C3=CC=C(C=C3)Br)CC=C.C(=CC(=O)O)C(=O)O

> <PUBCHEM_OPENEYE_ISO_SMILES>
CN(CCCCCCOC1=CC2=C(C=C1)C(=NS2)C3=CC=C(C=C3)Br)CC=C.C(=C/C(=O)O)\C(=O)O

> <PUBCHEM_CACTVS_TPSA>
128

> <PUBCHEM_MONOISOTOPIC_WEIGHT>
574.113705

> <PUBCHEM_TOTAL_CHARGE>
0

> <PUBCHEM_HEAVY_ATOM_COUNT>
36

> <PUBCHEM_ATOM_DEF_STEREO_COUNT>
0

> <PUBCHEM_ATOM_UDEF_STEREO_COUNT>
0

> <PUBCHEM_BOND_DEF_STEREO_COUNT>
1

> <PUBCHEM_BOND_UDEF_STEREO_COUNT>
0

> <PUBCHEM_ISOTOPIC_ATOM_COUNT>
0

> <PUBCHEM_COMPONENT_COUNT>
2

> <PUBCHEM_CACTVS_TAUTO_COUNT>
1

> <PUBCHEM_COORDINATE_TYPE>
1 __ 5 __ 255

> <PUBCHEM_BONDANNOTATIONS>
18  22  8 __ 18  23  8 __ 2  21  8 __ 2  9  8 __ 20  21  8 __ 20  24  8 __ 20  25  8 __ 21  22  8 __ 23  24  8 __ 26  28  8 __ 26  29  8 __ 28  30  8 __ 29  31  8 __ 30  32  8 __ 31  32  8 __ 9  25  8 __ 

$$$$
