44405824
ChemmineR-0425141737XD

 39 39  0     1  0  0  0  0  0999 V2000
    2.0000   -2.5311    0.0000 F   0  0  0  0  0  0  0  0  0  0  0  0
    2.0000   -0.7990    0.0000 F   0  0  0  0  0  0  0  0  0  0  0  0
    3.8660   -0.2990    0.0000 O   0  0  0  0  0  0  0  0  0  0  0  0
    2.8660    3.1651    0.0000 O   0  0  0  0  0  0  0  0  0  0  0  0
    2.8660    1.4330    0.0000 O   0  0  0  0  0  0  0  0  0  0  0  0
    3.5000   -1.6651    0.0000 C   0  0  2  0  0  0  0  0  0  0  0  0
    4.3660   -1.1651    0.0000 C   0  0  1  0  0  0  0  0  0  0  0  0
    5.2320   -1.6651    0.0000 C   0  0  2  0  0  0  0  0  0  0  0  0
    3.5000   -2.6651    0.0000 C   0  0  0  0  0  0  0  0  0  0  0  0
    5.2320   -2.6651    0.0000 C   0  0  0  0  0  0  0  0  0  0  0  0
    4.3660   -3.1651    0.0000 C   0  0  0  0  0  0  0  0  0  0  0  0
    2.5000   -1.6651    0.0000 C   0  0  0  0  0  0  0  0  0  0  0  0
    2.8572   -0.8990    0.0000 C   0  0  0  0  0  0  0  0  0  0  0  0
    6.0981   -1.1651    0.0000 C   0  0  0  0  0  0  0  0  0  0  0  0
    4.8660   -0.2990    0.0000 C   0  0  0  0  0  0  0  0  0  0  0  0
    4.3660    0.5670    0.0000 C   0  0  0  0  0  0  0  0  0  0  0  0
    4.8660    1.4330    0.0000 C   0  0  0  0  0  0  0  0  0  0  0  0
    4.3660    2.2990    0.0000 C   0  0  0  0  0  0  0  0  0  0  0  0
    3.3660    2.2990    0.0000 C   0  0  0  0  0  0  0  0  0  0  0  0
    5.2320   -1.0451    0.0000 H   0  0  0  0  0  0  0  0  0  0  0  0
    2.8894   -2.5574    0.0000 H   0  0  0  0  0  0  0  0  0  0  0  0
    3.2880   -3.2477    0.0000 H   0  0  0  0  0  0  0  0  0  0  0  0
    5.4441   -3.2477    0.0000 H   0  0  0  0  0  0  0  0  0  0  0  0
    5.8426   -2.5574    0.0000 H   0  0  0  0  0  0  0  0  0  0  0  0
    3.9675   -3.6400    0.0000 H   0  0  0  0  0  0  0  0  0  0  0  0
    4.7646   -3.6400    0.0000 H   0  0  0  0  0  0  0  0  0  0  0  0
    2.8100   -2.2020    0.0000 H   0  0  0  0  0  0  0  0  0  0  0  0
    3.3322   -0.5005    0.0000 H   0  0  0  0  0  0  0  0  0  0  0  0
    2.4587   -0.4241    0.0000 H   0  0  0  0  0  0  0  0  0  0  0  0
    2.3823   -1.2976    0.0000 H   0  0  0  0  0  0  0  0  0  0  0  0
    6.4081   -1.7020    0.0000 H   0  0  0  0  0  0  0  0  0  0  0  0
    6.6350   -0.8551    0.0000 H   0  0  0  0  0  0  0  0  0  0  0  0
    5.7881   -0.6281    0.0000 H   0  0  0  0  0  0  0  0  0  0  0  0
    5.4860   -0.2990    0.0000 H   0  0  0  0  0  0  0  0  0  0  0  0
    3.2555   -0.1913    0.0000 H   0  0  0  0  0  0  0  0  0  0  0  0
    3.7460    0.5670    0.0000 H   0  0  0  0  0  0  0  0  0  0  0  0
    5.4860    1.4330    0.0000 H   0  0  0  0  0  0  0  0  0  0  0  0
    4.6760    2.8360    0.0000 H   0  0  0  0  0  0  0  0  0  0  0  0
    2.2460    3.1651    0.0000 H   0  0  0  0  0  0  0  0  0  0  0  0
  1 12  1  0  0  0  0
  2 12  1  0  0  0  0
  7  3  1  6  0  0  0
  3 35  1  0  0  0  0
  4 19  1  0  0  0  0
  4 39  1  0  0  0  0
  5 19  2  0  0  0  0
  6  7  1  0  0  0  0
  6  9  1  0  0  0  0
  6 12  1  0  0  0  0
  6 13  1  1  0  0  0
  7  8  1  0  0  0  0
  7 15  1  0  0  0  0
  8 10  1  0  0  0  0
  8 14  1  1  0  0  0
  8 20  1  0  0  0  0
  9 11  1  0  0  0  0
  9 21  1  0  0  0  0
  9 22  1  0  0  0  0
 10 11  1  0  0  0  0
 10 23  1  0  0  0  0
 10 24  1  0  0  0  0
 11 25  1  0  0  0  0
 11 26  1  0  0  0  0
 12 27  1  0  0  0  0
 13 28  1  0  0  0  0
 13 29  1  0  0  0  0
 13 30  1  0  0  0  0
 14 31  1  0  0  0  0
 14 32  1  0  0  0  0
 14 33  1  0  0  0  0
 15 16  2  0  0  0  0
 15 34  1  0  0  0  0
 16 17  1  0  0  0  0
 16 36  1  0  0  0  0
 17 18  2  0  0  0  0
 17 37  1  0  0  0  0
 18 19  1  0  0  0  0
 18 38  1  0  0  0  0
M  END
> <PUBCHEM_COMPOUND_CID>
44405824

> <PUBCHEM_COMPOUND_CANONICALIZED>
1

> <PUBCHEM_CACTVS_COMPLEXITY>
392

> <PUBCHEM_CACTVS_HBOND_ACCEPTOR>
5

> <PUBCHEM_CACTVS_HBOND_DONOR>
2

> <PUBCHEM_CACTVS_ROTATABLE_BOND>
4

> <PUBCHEM_CACTVS_SUBSKEYS>
AAADceBwMYAAAAAAAAAAAAAAAAAAAAAAAAAwAAAAAAAAAAAAAAAAGwAACAAAD0SAgBACCAAAAgCIACDSCAAAAAAgAAAICAAAAEgIBAIAAQAAUAAEgAAIkYOAwOAPgAAAAAAAAAAAAAQAADAAAAAAAAAAAA==

> <PUBCHEM_IUPAC_OPENEYE_NAME>
(2Z,4E)-5-[(1S,2S,6S)-2-(difluoromethyl)-1-hydroxy-2,6-dimethyl-cyclohexyl]penta-2,4-dienoic acid

> <PUBCHEM_IUPAC_CAS_NAME>
(2Z,4E)-5-[(1S,2S,6S)-2-(difluoromethyl)-1-hydroxy-2,6-dimethylcyclohexyl]penta-2,4-dienoic acid

> <PUBCHEM_IUPAC_NAME>
(2Z,4E)-5-[(1S,2S,6S)-2-(difluoromethyl)-1-hydroxy-2,6-dimethylcyclohexyl]penta-2,4-dienoic acid

> <PUBCHEM_IUPAC_SYSTEMATIC_NAME>
(2Z,4E)-5-[(1S,2S,6S)-2-[bis(fluoranyl)methyl]-2,6-dimethyl-1-oxidanyl-cyclohexyl]penta-2,4-dienoic acid

> <PUBCHEM_IUPAC_TRADITIONAL_NAME>
(2Z,4E)-5-[(1S,2S,6S)-2-(difluoromethyl)-1-hydroxy-2,6-dimethyl-cyclohexyl]penta-2,4-dienoic acid

> <PUBCHEM_IUPAC_INCHI>
InChI=1S/C14H20F2O3/c1-10-6-5-8-13(2,12(15)16)14(10,19)9-4-3-7-11(17)18/h3-4,7,9-10,12,19H,5-6,8H2,1-2H3,(H,17,18)/b7-3-,9-4+/t10-,13+,14+/m0/s1

> <PUBCHEM_IUPAC_INCHIKEY>
VUMSMGMXWJLSOL-WYGSKVGUSA-N

> <PUBCHEM_XLOGP3_AA>
3.2

> <PUBCHEM_EXACT_MASS>
274.138051

> <PUBCHEM_MOLECULAR_FORMULA>
C14H20F2O3

> <PUBCHEM_MOLECULAR_WEIGHT>
274.303606

> <PUBCHEM_OPENEYE_CAN_SMILES>
CC1CCCC(C1(C=CC=CC(=O)O)O)(C)C(F)F

> <PUBCHEM_OPENEYE_ISO_SMILES>
C[C@H]1CCC[C@]([C@]1(/C=C/C=C\C(=O)O)O)(C)C(F)F

> <PUBCHEM_CACTVS_TPSA>
57.5

> <PUBCHEM_MONOISOTOPIC_WEIGHT>
274.138051

> <PUBCHEM_TOTAL_CHARGE>
0

> <PUBCHEM_HEAVY_ATOM_COUNT>
19

> <PUBCHEM_ATOM_DEF_STEREO_COUNT>
3

> <PUBCHEM_ATOM_UDEF_STEREO_COUNT>
0

> <PUBCHEM_BOND_DEF_STEREO_COUNT>
2

> <PUBCHEM_BOND_UDEF_STEREO_COUNT>
0

> <PUBCHEM_ISOTOPIC_ATOM_COUNT>
0

> <PUBCHEM_COMPONENT_COUNT>
1

> <PUBCHEM_CACTVS_TAUTO_COUNT>
1

> <PUBCHEM_COORDINATE_TYPE>
1 __ 5 __ 255

> <PUBCHEM_BONDANNOTATIONS>
7  3  6 __ 6  13  5 __ 8  14  5 __ 

$$$$
