44437938
ChemmineR-0425141737XD

 39 39  0     1  0  0  0  0  0999 V2000
    3.6200   -0.2990    0.0000 O   0  0  0  0  0  0  0  0  0  0  0  0
    2.6200    3.1651    0.0000 O   0  0  0  0  0  0  0  0  0  0  0  0
    2.6200    1.4330    0.0000 O   0  0  0  0  0  0  0  0  0  0  0  0
    3.2540   -1.6651    0.0000 C   0  0  0  0  0  0  0  0  0  0  0  0
    4.1200   -1.1651    0.0000 C   0  0  1  0  0  0  0  0  0  0  0  0
    4.9860   -1.6651    0.0000 C   0  0  1  0  0  0  0  0  0  0  0  0
    3.2540   -2.6651    0.0000 C   0  0  0  0  0  0  0  0  0  0  0  0
    4.9860   -2.6651    0.0000 C   0  0  0  0  0  0  0  0  0  0  0  0
    4.1200   -3.1651    0.0000 C   0  0  0  0  0  0  0  0  0  0  0  0
    2.2540   -1.6651    0.0000 C   0  0  0  0  0  0  0  0  0  0  0  0
    2.4879   -1.0223    0.0000 C   0  0  0  0  0  0  0  0  0  0  0  0
    5.8520   -1.1651    0.0000 C   0  0  0  0  0  0  0  0  0  0  0  0
    4.6200   -0.2990    0.0000 C   0  0  0  0  0  0  0  0  0  0  0  0
    4.1200    0.5670    0.0000 C   0  0  0  0  0  0  0  0  0  0  0  0
    4.6200    1.4330    0.0000 C   0  0  0  0  0  0  0  0  0  0  0  0
    4.1200    2.2990    0.0000 C   0  0  0  0  0  0  0  0  0  0  0  0
    3.1200    2.2990    0.0000 C   0  0  0  0  0  0  0  0  0  0  0  0
    4.9860   -1.0451    0.0000 H   0  0  0  0  0  0  0  0  0  0  0  0
    2.6434   -2.5574    0.0000 H   0  0  0  0  0  0  0  0  0  0  0  0
    3.0419   -3.2477    0.0000 H   0  0  0  0  0  0  0  0  0  0  0  0
    5.1981   -3.2477    0.0000 H   0  0  0  0  0  0  0  0  0  0  0  0
    5.5966   -2.5574    0.0000 H   0  0  0  0  0  0  0  0  0  0  0  0
    3.7215   -3.6400    0.0000 H   0  0  0  0  0  0  0  0  0  0  0  0
    4.5185   -3.6400    0.0000 H   0  0  0  0  0  0  0  0  0  0  0  0
    2.8865   -0.5473    0.0000 H   0  0  0  0  0  0  0  0  0  0  0  0
    2.0130   -0.6237    0.0000 H   0  0  0  0  0  0  0  0  0  0  0  0
    2.0894   -1.4972    0.0000 H   0  0  0  0  0  0  0  0  0  0  0  0
    2.2540   -1.0451    0.0000 H   0  0  0  0  0  0  0  0  0  0  0  0
    1.6340   -1.6651    0.0000 H   0  0  0  0  0  0  0  0  0  0  0  0
    2.2540   -2.2851    0.0000 H   0  0  0  0  0  0  0  0  0  0  0  0
    6.1620   -1.7020    0.0000 H   0  0  0  0  0  0  0  0  0  0  0  0
    6.3890   -0.8551    0.0000 H   0  0  0  0  0  0  0  0  0  0  0  0
    5.5420   -0.6281    0.0000 H   0  0  0  0  0  0  0  0  0  0  0  0
    5.2400   -0.2990    0.0000 H   0  0  0  0  0  0  0  0  0  0  0  0
    3.0000   -0.2990    0.0000 H   0  0  0  0  0  0  0  0  0  0  0  0
    3.5000    0.5670    0.0000 H   0  0  0  0  0  0  0  0  0  0  0  0
    5.2400    1.4330    0.0000 H   0  0  0  0  0  0  0  0  0  0  0  0
    4.4300    2.8360    0.0000 H   0  0  0  0  0  0  0  0  0  0  0  0
    2.0000    3.1651    0.0000 H   0  0  0  0  0  0  0  0  0  0  0  0
  5  1  1  6  0  0  0
  1 35  1  0  0  0  0
  2 17  1  0  0  0  0
  2 39  1  0  0  0  0
  3 17  2  0  0  0  0
  4  5  1  0  0  0  0
  4  7  1  0  0  0  0
  4 10  1  0  0  0  0
  4 11  1  0  0  0  0
  5  6  1  0  0  0  0
  5 13  1  0  0  0  0
  6  8  1  0  0  0  0
  6 12  1  6  0  0  0
  6 18  1  0  0  0  0
  7  9  1  0  0  0  0
  7 19  1  0  0  0  0
  7 20  1  0  0  0  0
  8  9  1  0  0  0  0
  8 21  1  0  0  0  0
  8 22  1  0  0  0  0
  9 23  1  0  0  0  0
  9 24  1  0  0  0  0
 10 28  1  0  0  0  0
 10 29  1  0  0  0  0
 10 30  1  0  0  0  0
 11 25  1  0  0  0  0
 11 26  1  0  0  0  0
 11 27  1  0  0  0  0
 12 31  1  0  0  0  0
 12 32  1  0  0  0  0
 12 33  1  0  0  0  0
 13 14  2  0  0  0  0
 13 34  1  0  0  0  0
 14 15  1  0  0  0  0
 14 36  1  0  0  0  0
 15 16  2  0  0  0  0
 15 37  1  0  0  0  0
 16 17  1  0  0  0  0
 16 38  1  0  0  0  0
M  END
> <PUBCHEM_COMPOUND_CID>
44437938

> <PUBCHEM_COMPOUND_CANONICALIZED>
1

> <PUBCHEM_CACTVS_COMPLEXITY>
341

> <PUBCHEM_CACTVS_HBOND_ACCEPTOR>
3

> <PUBCHEM_CACTVS_HBOND_DONOR>
2

> <PUBCHEM_CACTVS_ROTATABLE_BOND>
3

> <PUBCHEM_CACTVS_SUBSKEYS>
AAADceBwMAAAAAAAAAAAAAAAAAAAAAAAAAAwAAAAAAAAAAAAAAAAGgAACAAAD0SAgAACCAAAAgCIACDSCAAAAAAgAAAICAAAAEgIBAIAAQAAUAAEgAAIkYOAwOAPgAAAAAAAAAAAAAQAADAAAAAAAAAAAA==

> <PUBCHEM_IUPAC_OPENEYE_NAME>
(2Z,4E)-5-[(1S,6R)-1-hydroxy-2,2,6-trimethyl-cyclohexyl]penta-2,4-dienoic acid

> <PUBCHEM_IUPAC_CAS_NAME>
(2Z,4E)-5-[(1S,6R)-1-hydroxy-2,2,6-trimethylcyclohexyl]penta-2,4-dienoic acid

> <PUBCHEM_IUPAC_NAME>
(2Z,4E)-5-[(1S,6R)-1-hydroxy-2,2,6-trimethylcyclohexyl]penta-2,4-dienoic acid

> <PUBCHEM_IUPAC_SYSTEMATIC_NAME>
(2Z,4E)-5-[(1S,6R)-2,2,6-trimethyl-1-oxidanyl-cyclohexyl]penta-2,4-dienoic acid

> <PUBCHEM_IUPAC_TRADITIONAL_NAME>
(2Z,4E)-5-[(1S,6R)-1-hydroxy-2,2,6-trimethyl-cyclohexyl]penta-2,4-dienoic acid

> <PUBCHEM_IUPAC_INCHI>
InChI=1S/C14H22O3/c1-11-7-6-9-13(2,3)14(11,17)10-5-4-8-12(15)16/h4-5,8,10-11,17H,6-7,9H2,1-3H3,(H,15,16)/b8-4-,10-5+/t11-,14-/m1/s1

> <PUBCHEM_IUPAC_INCHIKEY>
XRNXMVZXLFUIQI-ARHMHYJYSA-N

> <PUBCHEM_XLOGP3_AA>
2.9

> <PUBCHEM_EXACT_MASS>
238.156895

> <PUBCHEM_MOLECULAR_FORMULA>
C14H22O3

> <PUBCHEM_MOLECULAR_WEIGHT>
238.32268

> <PUBCHEM_OPENEYE_CAN_SMILES>
CC1CCCC(C1(C=CC=CC(=O)O)O)(C)C

> <PUBCHEM_OPENEYE_ISO_SMILES>
C[C@@H]1CCCC([C@]1(/C=C/C=C\C(=O)O)O)(C)C

> <PUBCHEM_CACTVS_TPSA>
57.5

> <PUBCHEM_MONOISOTOPIC_WEIGHT>
238.156895

> <PUBCHEM_TOTAL_CHARGE>
0

> <PUBCHEM_HEAVY_ATOM_COUNT>
17

> <PUBCHEM_ATOM_DEF_STEREO_COUNT>
2

> <PUBCHEM_ATOM_UDEF_STEREO_COUNT>
0

> <PUBCHEM_BOND_DEF_STEREO_COUNT>
2

> <PUBCHEM_BOND_UDEF_STEREO_COUNT>
0

> <PUBCHEM_ISOTOPIC_ATOM_COUNT>
0

> <PUBCHEM_COMPONENT_COUNT>
1

> <PUBCHEM_CACTVS_TAUTO_COUNT>
1

> <PUBCHEM_COORDINATE_TYPE>
1 __ 5 __ 255

> <PUBCHEM_BONDANNOTATIONS>
5  1  6 __ 6  12  6 __ 

$$$$
