44450890
ChemmineR-0425141737XD

 38 39  0     0  0  0  0  0  0999 V2000
    2.8660   -3.5194    0.0000 Cl   0  0  0  0  0  0  0  0  0  0  0  0
    3.7320    1.9806    0.0000 N    0  0  0  0  0  0  0  0  0  0  0  0
    3.2320    3.5194    0.0000 N    0  0  0  0  0  0  0  0  0  0  0  0
    5.4641    0.9806    0.0000 C    0  0  0  0  0  0  0  0  0  0  0  0
    4.5981    0.4806    0.0000 C    0  0  0  0  0  0  0  0  0  0  0  0
    6.3301    1.4806    0.0000 C    0  0  0  0  0  0  0  0  0  0  0  0
    5.9641    0.1146    0.0000 C    0  0  0  0  0  0  0  0  0  0  0  0
    4.9641    1.8466    0.0000 C    0  0  0  0  0  0  0  0  0  0  0  0
    3.7320    0.9806    0.0000 C    0  0  0  0  0  0  0  0  0  0  0  0
    2.8660    0.4806    0.0000 C    0  0  0  0  0  0  0  0  0  0  0  0
    2.8660   -0.5194    0.0000 C    0  0  0  0  0  0  0  0  0  0  0  0
    4.5411    2.5684    0.0000 C    0  0  0  0  0  0  0  0  0  0  0  0
    2.9230    2.5684    0.0000 C    0  0  0  0  0  0  0  0  0  0  0  0
    4.2320    3.5194    0.0000 C    0  0  0  0  0  0  0  0  0  0  0  0
    2.0000   -1.0194    0.0000 C    0  0  0  0  0  0  0  0  0  0  0  0
    3.7320   -1.0194    0.0000 C    0  0  0  0  0  0  0  0  0  0  0  0
    2.0000   -2.0194    0.0000 C    0  0  0  0  0  0  0  0  0  0  0  0
    3.7320   -2.0194    0.0000 C    0  0  0  0  0  0  0  0  0  0  0  0
    2.8660   -2.5194    0.0000 C    0  0  0  0  0  0  0  0  0  0  0  0
    4.1996    0.0056    0.0000 H    0  0  0  0  0  0  0  0  0  0  0  0
    4.9966    0.0056    0.0000 H    0  0  0  0  0  0  0  0  0  0  0  0
    5.5010    2.1566    0.0000 H    0  0  0  0  0  0  0  0  0  0  0  0
    4.6541    2.3835    0.0000 H    0  0  0  0  0  0  0  0  0  0  0  0
    4.4272    1.5366    0.0000 H    0  0  0  0  0  0  0  0  0  0  0  0
    5.4272   -0.1954    0.0000 H    0  0  0  0  0  0  0  0  0  0  0  0
    6.2741   -0.4224    0.0000 H    0  0  0  0  0  0  0  0  0  0  0  0
    6.5010    0.4246    0.0000 H    0  0  0  0  0  0  0  0  0  0  0  0
    6.6401    0.9436    0.0000 H    0  0  0  0  0  0  0  0  0  0  0  0
    6.8671    1.7906    0.0000 H    0  0  0  0  0  0  0  0  0  0  0  0
    6.0201    2.0175    0.0000 H    0  0  0  0  0  0  0  0  0  0  0  0
    2.3291    0.7906    0.0000 H    0  0  0  0  0  0  0  0  0  0  0  0
    5.1307    2.3768    0.0000 H    0  0  0  0  0  0  0  0  0  0  0  0
    2.3334    2.3768    0.0000 H    0  0  0  0  0  0  0  0  0  0  0  0
    4.5965    4.0210    0.0000 H    0  0  0  0  0  0  0  0  0  0  0  0
    1.4631   -0.7094    0.0000 H    0  0  0  0  0  0  0  0  0  0  0  0
    4.2690   -0.7094    0.0000 H    0  0  0  0  0  0  0  0  0  0  0  0
    1.4631   -2.3294    0.0000 H    0  0  0  0  0  0  0  0  0  0  0  0
    4.2690   -2.3294    0.0000 H    0  0  0  0  0  0  0  0  0  0  0  0
  1 19  1  0  0  0  0
  2  9  1  0  0  0  0
  2 12  1  0  0  0  0
  2 13  1  0  0  0  0
  3 13  2  0  0  0  0
  3 14  1  0  0  0  0
  4  5  1  0  0  0  0
  4  6  1  0  0  0  0
  4  7  1  0  0  0  0
  4  8  1  0  0  0  0
  5  9  1  0  0  0  0
  5 20  1  0  0  0  0
  5 21  1  0  0  0  0
  6 28  1  0  0  0  0
  6 29  1  0  0  0  0
  6 30  1  0  0  0  0
  7 25  1  0  0  0  0
  7 26  1  0  0  0  0
  7 27  1  0  0  0  0
  8 22  1  0  0  0  0
  8 23  1  0  0  0  0
  8 24  1  0  0  0  0
  9 10  2  0  0  0  0
 10 11  1  0  0  0  0
 10 31  1  0  0  0  0
 11 15  2  0  0  0  0
 11 16  1  0  0  0  0
 12 14  2  0  0  0  0
 12 32  1  0  0  0  0
 13 33  1  0  0  0  0
 14 34  1  0  0  0  0
 15 17  1  0  0  0  0
 15 35  1  0  0  0  0
 16 18  2  0  0  0  0
 16 36  1  0  0  0  0
 17 19  2  0  0  0  0
 17 37  1  0  0  0  0
 18 19  1  0  0  0  0
 18 38  1  0  0  0  0
M  END
> <PUBCHEM_COMPOUND_CID>
44450890

> <PUBCHEM_COMPOUND_CANONICALIZED>
1

> <PUBCHEM_CACTVS_COMPLEXITY>
311

> <PUBCHEM_CACTVS_HBOND_ACCEPTOR>
1

> <PUBCHEM_CACTVS_HBOND_DONOR>
0

> <PUBCHEM_CACTVS_ROTATABLE_BOND>
4

> <PUBCHEM_CACTVS_SUBSKEYS>
AAADceB7AAAEAAAAAAAAAAAAAAAAAWAAAAAwAAAAAAAAAAABwAAAHAIAAAAADgrBGiQ/kJcMEACgAjRnZAACgC0xF6AJyAAYMoiIaCKBmxCUIAAogAKIiCcAgAAPBAAAAAAAAAAIAAAAAAAAAAAAAAAAAA==

> <PUBCHEM_IUPAC_OPENEYE_NAME>
1-[(1E)-1-[(4-chlorophenyl)methylene]-3,3-dimethyl-butyl]imidazole

> <PUBCHEM_IUPAC_CAS_NAME>
1-[(E)-1-(4-chlorophenyl)-4,4-dimethylpent-1-en-2-yl]imidazole

> <PUBCHEM_IUPAC_NAME>
1-[(E)-1-(4-chlorophenyl)-4,4-dimethylpent-1-en-2-yl]imidazole

> <PUBCHEM_IUPAC_SYSTEMATIC_NAME>
1-[(E)-1-(4-chlorophenyl)-4,4-dimethyl-pent-1-en-2-yl]imidazole

> <PUBCHEM_IUPAC_TRADITIONAL_NAME>
1-[(E)-2-(4-chlorophenyl)-1-neopentyl-vinyl]imidazole

> <PUBCHEM_IUPAC_INCHI>
InChI=1S/C16H19ClN2/c1-16(2,3)11-15(19-9-8-18-12-19)10-13-4-6-14(17)7-5-13/h4-10,12H,11H2,1-3H3/b15-10+

> <PUBCHEM_IUPAC_INCHIKEY>
UDABWPDKDHOMLG-XNTDXEJSSA-N

> <PUBCHEM_XLOGP3_AA>
4.7

> <PUBCHEM_EXACT_MASS>
274.123676

> <PUBCHEM_MOLECULAR_FORMULA>
C16H19ClN2

> <PUBCHEM_MOLECULAR_WEIGHT>
274.78846

> <PUBCHEM_OPENEYE_CAN_SMILES>
CC(C)(C)CC(=CC1=CC=C(C=C1)Cl)N2C=CN=C2

> <PUBCHEM_OPENEYE_ISO_SMILES>
CC(C)(C)C/C(=C\C1=CC=C(C=C1)Cl)/N2C=CN=C2

> <PUBCHEM_CACTVS_TPSA>
17.8

> <PUBCHEM_MONOISOTOPIC_WEIGHT>
274.123676

> <PUBCHEM_TOTAL_CHARGE>
0

> <PUBCHEM_HEAVY_ATOM_COUNT>
19

> <PUBCHEM_ATOM_DEF_STEREO_COUNT>
0

> <PUBCHEM_ATOM_UDEF_STEREO_COUNT>
0

> <PUBCHEM_BOND_DEF_STEREO_COUNT>
1

> <PUBCHEM_BOND_UDEF_STEREO_COUNT>
0

> <PUBCHEM_ISOTOPIC_ATOM_COUNT>
0

> <PUBCHEM_COMPONENT_COUNT>
1

> <PUBCHEM_CACTVS_TAUTO_COUNT>
1

> <PUBCHEM_COORDINATE_TYPE>
1 __ 5 __ 255

> <PUBCHEM_BONDANNOTATIONS>
11  15  8 __ 11  16  8 __ 12  14  8 __ 15  17  8 __ 16  18  8 __ 17  19  8 __ 18  19  8 __ 2  12  8 __ 2  13  8 __ 3  13  8 __ 3  14  8 __ 

$$$$
