44570939
ChemmineR-0425141737XD

 87 87  0     1  0  0  0  0  0999 V2000
   14.8691   15.1200    0.0000 F   0  0  0  0  0  0  0  0  0  0  0  0
   15.8691   14.1200    0.0000 F   0  0  0  0  0  0  0  0  0  0  0  0
   13.8691   14.1200    0.0000 F   0  0  0  0  0  0  0  0  0  0  0  0
   14.8691   10.1200    0.0000 O   0  0  0  0  0  0  0  0  0  0  0  0
   13.1371   10.1200    0.0000 O   0  0  0  0  0  0  0  0  0  0  0  0
    2.7690    6.5595    0.0000 O   0  0  0  0  0  0  0  0  0  0  0  0
    4.0010    7.4255    0.0000 O   0  0  0  0  0  0  0  0  0  0  0  0
    3.1350    8.9255    0.0000 O   0  0  0  0  0  0  0  0  0  0  0  0
    0.2690    9.1576    0.0000 O   0  0  0  0  0  0  0  0  0  0  0  0
    0.5369    5.4255    0.0000 O   0  0  0  0  0  0  0  0  0  0  0  0
    0.2690    7.4255    0.0000 O   0  0  0  0  0  0  0  0  0  0  0  0
    2.2690    5.4255    0.0000 O   0  0  0  0  0  0  0  0  0  0  0  0
   14.0031    8.6200    0.0000 N   0  0  0  0  0  0  0  0  0  0  0  0
    8.8070    2.6200    0.0000 N   0  0  3  0  0  0  0  0  0  0  0  0
   11.4050    7.1200    0.0000 C   0  0  0  0  0  0  0  0  0  0  0  0
   13.1371    8.1200    0.0000 C   0  0  0  0  0  0  0  0  0  0  0  0
   11.4050    8.1200    0.0000 C   0  0  0  0  0  0  0  0  0  0  0  0
   12.2711    6.6200    0.0000 C   0  0  0  0  0  0  0  0  0  0  0  0
   12.2711    8.6200    0.0000 C   0  0  0  0  0  0  0  0  0  0  0  0
   13.1371    7.1200    0.0000 C   0  0  0  0  0  0  0  0  0  0  0  0
   10.5390    6.6200    0.0000 C   0  0  0  0  0  0  0  0  0  0  0  0
   10.5390    5.6200    0.0000 C   0  0  0  0  0  0  0  0  0  0  0  0
    9.6730    5.1200    0.0000 C   0  0  0  0  0  0  0  0  0  0  0  0
   14.8691    8.1200    0.0000 C   0  0  0  0  0  0  0  0  0  0  0  0
    9.6730    4.1200    0.0000 C   0  0  0  0  0  0  0  0  0  0  0  0
   14.0031    9.6200    0.0000 C   0  0  0  0  0  0  0  0  0  0  0  0
    8.8070    3.6200    0.0000 C   0  0  0  0  0  0  0  0  0  0  0  0
    7.9409    2.1200    0.0000 C   0  0  0  0  0  0  0  0  0  0  0  0
   14.8691   11.1200    0.0000 C   0  0  0  0  0  0  0  0  0  0  0  0
    9.6730    2.1200    0.0000 C   0  0  0  0  0  0  0  0  0  0  0  0
    7.9409    1.1200    0.0000 C   0  0  0  0  0  0  0  0  0  0  0  0
   15.7352   11.6200    0.0000 C   0  0  0  0  0  0  0  0  0  0  0  0
   14.0031   11.6200    0.0000 C   0  0  0  0  0  0  0  0  0  0  0  0
   15.7352   12.6200    0.0000 C   0  0  0  0  0  0  0  0  0  0  0  0
   14.0031   12.6200    0.0000 C   0  0  0  0  0  0  0  0  0  0  0  0
   14.8691   13.1200    0.0000 C   0  0  0  0  0  0  0  0  0  0  0  0
    7.0749    0.6200    0.0000 C   0  0  0  0  0  0  0  0  0  0  0  0
   14.8691   14.1200    0.0000 C   0  0  0  0  0  0  0  0  0  0  0  0
    2.2690    7.4255    0.0000 C   0  0  0  0  0  0  0  0  0  0  0  0
    1.4030    6.9255    0.0000 C   0  0  0  0  0  0  0  0  0  0  0  0
    1.7690    8.2915    0.0000 C   0  0  0  0  0  0  0  0  0  0  0  0
    3.1350    7.9255    0.0000 C   0  0  0  0  0  0  0  0  0  0  0  0
    0.7690    8.2915    0.0000 C   0  0  0  0  0  0  0  0  0  0  0  0
    1.4030    5.9255    0.0000 C   0  0  0  0  0  0  0  0  0  0  0  0
   10.8681    7.4300    0.0000 H   0  0  0  0  0  0  0  0  0  0  0  0
   13.1371    8.7400    0.0000 H   0  0  0  0  0  0  0  0  0  0  0  0
   11.1930    8.7026    0.0000 H   0  0  0  0  0  0  0  0  0  0  0  0
   10.7945    8.0123    0.0000 H   0  0  0  0  0  0  0  0  0  0  0  0
   11.8725    6.1450    0.0000 H   0  0  0  0  0  0  0  0  0  0  0  0
   12.6696    6.1450    0.0000 H   0  0  0  0  0  0  0  0  0  0  0  0
   12.6696    9.0950    0.0000 H   0  0  0  0  0  0  0  0  0  0  0  0
   11.8725    9.0950    0.0000 H   0  0  0  0  0  0  0  0  0  0  0  0
   13.3491    6.5374    0.0000 H   0  0  0  0  0  0  0  0  0  0  0  0
   13.7477    7.2277    0.0000 H   0  0  0  0  0  0  0  0  0  0  0  0
   10.3270    7.2026    0.0000 H   0  0  0  0  0  0  0  0  0  0  0  0
    9.9284    6.5123    0.0000 H   0  0  0  0  0  0  0  0  0  0  0  0
   10.7511    5.0374    0.0000 H   0  0  0  0  0  0  0  0  0  0  0  0
   11.1496    5.7277    0.0000 H   0  0  0  0  0  0  0  0  0  0  0  0
    9.4609    5.7026    0.0000 H   0  0  0  0  0  0  0  0  0  0  0  0
    9.0624    5.0123    0.0000 H   0  0  0  0  0  0  0  0  0  0  0  0
   14.5591    7.5831    0.0000 H   0  0  0  0  0  0  0  0  0  0  0  0
   15.4061    7.8100    0.0000 H   0  0  0  0  0  0  0  0  0  0  0  0
   15.1791    8.6569    0.0000 H   0  0  0  0  0  0  0  0  0  0  0  0
    9.8850    3.5374    0.0000 H   0  0  0  0  0  0  0  0  0  0  0  0
   10.2836    4.2277    0.0000 H   0  0  0  0  0  0  0  0  0  0  0  0
    8.5949    4.2026    0.0000 H   0  0  0  0  0  0  0  0  0  0  0  0
    8.1964    3.5123    0.0000 H   0  0  0  0  0  0  0  0  0  0  0  0
    7.7289    2.7026    0.0000 H   0  0  0  0  0  0  0  0  0  0  0  0
    7.3304    2.0123    0.0000 H   0  0  0  0  0  0  0  0  0  0  0  0
    9.3630    1.5831    0.0000 H   0  0  0  0  0  0  0  0  0  0  0  0
   10.2099    1.8100    0.0000 H   0  0  0  0  0  0  0  0  0  0  0  0
    9.9830    2.6569    0.0000 H   0  0  0  0  0  0  0  0  0  0  0  0
    8.4779    0.8100    0.0000 H   0  0  0  0  0  0  0  0  0  0  0  0
   16.2721   11.3100    0.0000 H   0  0  0  0  0  0  0  0  0  0  0  0
   13.4662   11.3100    0.0000 H   0  0  0  0  0  0  0  0  0  0  0  0
   16.2721   12.9300    0.0000 H   0  0  0  0  0  0  0  0  0  0  0  0
   13.4662   12.9300    0.0000 H   0  0  0  0  0  0  0  0  0  0  0  0
    6.5380    0.9300    0.0000 H   0  0  0  0  0  0  0  0  0  0  0  0
    7.0749    0.0000    0.0000 H   0  0  0  0  0  0  0  0  0  0  0  0
    1.1909    7.5081    0.0000 H   0  0  0  0  0  0  0  0  0  0  0  0
    0.7924    6.8178    0.0000 H   0  0  0  0  0  0  0  0  0  0  0  0
    2.3516    8.5036    0.0000 H   0  0  0  0  0  0  0  0  0  0  0  0
    1.6613    8.9021    0.0000 H   0  0  0  0  0  0  0  0  0  0  0  0
    2.4590    6.0226    0.0000 H   0  0  0  0  0  0  0  0  0  0  0  0
    4.5380    7.7355    0.0000 H   0  0  0  0  0  0  0  0  0  0  0  0
    0.5790    9.6945    0.0000 H   0  0  0  0  0  0  0  0  0  0  0  0
    0.0000    5.7355    0.0000 H   0  0  0  0  0  0  0  0  0  0  0  0
  1 38  1  0  0  0  0
  2 38  1  0  0  0  0
  3 38  1  0  0  0  0
  4 26  1  0  0  0  0
  4 29  1  0  0  0  0
  5 26  2  0  0  0  0
  6 39  1  0  0  0  0
  6 84  1  0  0  0  0
  7 42  1  0  0  0  0
  7 85  1  0  0  0  0
  8 42  2  0  0  0  0
  9 43  1  0  0  0  0
  9 86  1  0  0  0  0
 10 44  1  0  0  0  0
 10 87  1  0  0  0  0
 11 43  2  0  0  0  0
 12 44  2  0  0  0  0
 13 16  1  0  0  0  0
 13 24  1  0  0  0  0
 13 26  1  0  0  0  0
 14 27  1  0  0  0  0
 14 28  1  0  0  0  0
 14 30  1  0  0  0  0
 15 17  1  0  0  0  0
 15 18  1  0  0  0  0
 15 21  1  0  0  0  0
 15 45  1  0  0  0  0
 16 19  1  0  0  0  0
 16 20  1  0  0  0  0
 16 46  1  0  0  0  0
 17 19  1  0  0  0  0
 17 47  1  0  0  0  0
 17 48  1  0  0  0  0
 18 20  1  0  0  0  0
 18 49  1  0  0  0  0
 18 50  1  0  0  0  0
 19 51  1  0  0  0  0
 19 52  1  0  0  0  0
 20 53  1  0  0  0  0
 20 54  1  0  0  0  0
 21 22  1  0  0  0  0
 21 55  1  0  0  0  0
 21 56  1  0  0  0  0
 22 23  1  0  0  0  0
 22 57  1  0  0  0  0
 22 58  1  0  0  0  0
 23 25  1  0  0  0  0
 23 59  1  0  0  0  0
 23 60  1  0  0  0  0
 24 61  1  0  0  0  0
 24 62  1  0  0  0  0
 24 63  1  0  0  0  0
 25 27  1  0  0  0  0
 25 64  1  0  0  0  0
 25 65  1  0  0  0  0
 27 66  1  0  0  0  0
 27 67  1  0  0  0  0
 28 31  1  0  0  0  0
 28 68  1  0  0  0  0
 28 69  1  0  0  0  0
 29 32  2  0  0  0  0
 29 33  1  0  0  0  0
 30 70  1  0  0  0  0
 30 71  1  0  0  0  0
 30 72  1  0  0  0  0
 31 37  2  0  0  0  0
 31 73  1  0  0  0  0
 32 34  1  0  0  0  0
 32 74  1  0  0  0  0
 33 35  2  0  0  0  0
 33 75  1  0  0  0  0
 34 36  2  0  0  0  0
 34 76  1  0  0  0  0
 35 36  1  0  0  0  0
 35 77  1  0  0  0  0
 36 38  1  0  0  0  0
 37 78  1  0  0  0  0
 37 79  1  0  0  0  0
 39 40  1  0  0  0  0
 39 41  1  0  0  0  0
 39 42  1  0  0  0  0
 40 44  1  0  0  0  0
 40 80  1  0  0  0  0
 40 81  1  0  0  0  0
 41 43  1  0  0  0  0
 41 82  1  0  0  0  0
 41 83  1  0  0  0  0
M  END
> <PUBCHEM_COMPOUND_CID>
44570939

> <PUBCHEM_COMPOUND_CANONICALIZED>
1

> <PUBCHEM_CACTVS_COMPLEXITY>
767

> <PUBCHEM_CACTVS_HBOND_ACCEPTOR>
13

> <PUBCHEM_CACTVS_HBOND_DONOR>
4

> <PUBCHEM_CACTVS_ROTATABLE_BOND>
16

> <PUBCHEM_CACTVS_SUBSKEYS>
AAADcfB7PYAAAAAAAAAAAAAAAAAAAAAAAAAwYAAAAAAAAAABAAAAHwAACAAADWzBmBQyDoMABgCIAiDSGAKCCAAgIAAIiAFOCIgNJjaEsRqMciAl5hGJqAfb5sAOIAAAAAAAAABQAAAAAAAAAAAAAAAAAA==

> <PUBCHEM_IUPAC_OPENEYE_NAME>
citric acid;[4-(trifluoromethyl)phenyl] N-[4-[5-[allyl(methyl)amino]pentyl]cyclohexyl]-N-methyl-carbamate

> <PUBCHEM_IUPAC_CAS_NAME>
2-hydroxypropane-1,2,3-tricarboxylic acid;N-methyl-N-[4-[5-[methyl(prop-2-enyl)amino]pentyl]cyclohexyl]carbamic acid [4-(trifluoromethyl)phenyl] ester

> <PUBCHEM_IUPAC_NAME>
2-hydroxypropane-1,2,3-tricarboxylic acid;[4-(trifluoromethyl)phenyl] N-methyl-N-[4-[5-[methyl(prop-2-enyl)amino]pentyl]cyclohexyl]carbamate

> <PUBCHEM_IUPAC_SYSTEMATIC_NAME>
2-oxidanylpropane-1,2,3-tricarboxylic acid;[4-(trifluoromethyl)phenyl] N-methyl-N-[4-[5-[methyl(prop-2-enyl)amino]pentyl]cyclohexyl]carbamate

> <PUBCHEM_IUPAC_TRADITIONAL_NAME>
N-[4-[5-[allyl(methyl)amino]pentyl]cyclohexyl]-N-methyl-carbamic acid [4-(trifluoromethyl)phenyl] ester;citric acid

> <PUBCHEM_IUPAC_INCHI>
InChI=1S/C24H35F3N2O2.C6H8O7/c1-4-17-28(2)18-7-5-6-8-19-9-13-21(14-10-19)29(3)23(30)31-22-15-11-20(12-16-22)24(25,26)27;7-3(8)1-6(13,5(11)12)2-4(9)10/h4,11-12,15-16,19,21H,1,5-10,13-14,17-18H2,2-3H3;13H,1-2H2,(H,7,8)(H,9,10)(H,11,12)

> <PUBCHEM_IUPAC_INCHIKEY>
MUWQVRLDCKDCPR-UHFFFAOYSA-N

> <PUBCHEM_EXACT_MASS>
632.292066

> <PUBCHEM_MOLECULAR_FORMULA>
C30H43F3N2O9

> <PUBCHEM_MOLECULAR_WEIGHT>
632.66563

> <PUBCHEM_OPENEYE_CAN_SMILES>
CN(CCCCCC1CCC(CC1)N(C)C(=O)OC2=CC=C(C=C2)C(F)(F)F)CC=C.C(C(=O)O)C(CC(=O)O)(C(=O)O)O

> <PUBCHEM_OPENEYE_ISO_SMILES>
CN(CCCCCC1CCC(CC1)N(C)C(=O)OC2=CC=C(C=C2)C(F)(F)F)CC=C.C(C(=O)O)C(CC(=O)O)(C(=O)O)O

> <PUBCHEM_CACTVS_TPSA>
165

> <PUBCHEM_MONOISOTOPIC_WEIGHT>
632.292066

> <PUBCHEM_TOTAL_CHARGE>
0

> <PUBCHEM_HEAVY_ATOM_COUNT>
44

> <PUBCHEM_ATOM_DEF_STEREO_COUNT>
0

> <PUBCHEM_ATOM_UDEF_STEREO_COUNT>
0

> <PUBCHEM_BOND_DEF_STEREO_COUNT>
0

> <PUBCHEM_BOND_UDEF_STEREO_COUNT>
0

> <PUBCHEM_ISOTOPIC_ATOM_COUNT>
0

> <PUBCHEM_COMPONENT_COUNT>
2

> <PUBCHEM_CACTVS_TAUTO_COUNT>
1

> <PUBCHEM_COORDINATE_TYPE>
1 __ 5 __ 255

> <PUBCHEM_BONDANNOTATIONS>
29  32  8 __ 29  33  8 __ 32  34  8 __ 33  35  8 __ 34  36  8 __ 35  36  8 __ 

$$$$
