44570982
ChemmineR-0425141737XD

 52 55  0     0  0  0  0  0  0999 V2000
   12.8491    2.8034    0.0000 Br   0  0  0  0  0  0  0  0  0  0  0  0
   11.6065   -2.6081    0.0000 S    0  0  0  0  0  0  0  0  0  0  0  0
    2.0000   -1.3034    0.0000 O    0  0  0  0  0  0  0  0  0  0  0  0
    3.7320   -2.3034    0.0000 N    0  0  0  0  0  0  0  0  0  0  0  0
   12.1901   -1.8034    0.0000 N    0  0  0  0  0  0  0  0  0  0  0  0
    4.5981   -2.8034    0.0000 C    0  0  0  0  0  0  0  0  0  0  0  0
    5.4641   -2.3034    0.0000 C    0  0  0  0  0  0  0  0  0  0  0  0
    6.3301   -2.8034    0.0000 C    0  0  0  0  0  0  0  0  0  0  0  0
    2.8660   -2.8034    0.0000 C    0  0  0  0  0  0  0  0  0  0  0  0
    3.7320   -1.3034    0.0000 C    0  0  0  0  0  0  0  0  0  0  0  0
    7.1962   -2.3034    0.0000 C    0  0  0  0  0  0  0  0  0  0  0  0
    2.0000   -2.3034    0.0000 C    0  0  0  0  0  0  0  0  0  0  0  0
    2.8660   -0.8034    0.0000 C    0  0  0  0  0  0  0  0  0  0  0  0
    8.0622   -2.8034    0.0000 C    0  0  0  0  0  0  0  0  0  0  0  0
    8.9282   -2.3034    0.0000 C    0  0  0  0  0  0  0  0  0  0  0  0
    9.7942   -2.8034    0.0000 C    0  0  0  0  0  0  0  0  0  0  0  0
    8.9282   -1.3034    0.0000 C    0  0  0  0  0  0  0  0  0  0  0  0
   10.6603   -1.3034    0.0000 C    0  0  0  0  0  0  0  0  0  0  0  0
   10.6603   -2.3034    0.0000 C    0  0  0  0  0  0  0  0  0  0  0  0
    9.7942   -0.8034    0.0000 C    0  0  0  0  0  0  0  0  0  0  0  0
   11.6065   -0.9987    0.0000 C    0  0  0  0  0  0  0  0  0  0  0  0
   11.9171   -0.0482    0.0000 C    0  0  0  0  0  0  0  0  0  0  0  0
   12.8956    0.1581    0.0000 C    0  0  0  0  0  0  0  0  0  0  0  0
   11.2493    0.6961    0.0000 C    0  0  0  0  0  0  0  0  0  0  0  0
   13.2063    1.1086    0.0000 C    0  0  0  0  0  0  0  0  0  0  0  0
   11.5600    1.6467    0.0000 C    0  0  0  0  0  0  0  0  0  0  0  0
   12.5385    1.8529    0.0000 C    0  0  0  0  0  0  0  0  0  0  0  0
    4.1996   -3.2784    0.0000 H    0  0  0  0  0  0  0  0  0  0  0  0
    4.9966   -3.2784    0.0000 H    0  0  0  0  0  0  0  0  0  0  0  0
    5.8626   -1.8285    0.0000 H    0  0  0  0  0  0  0  0  0  0  0  0
    5.0656   -1.8285    0.0000 H    0  0  0  0  0  0  0  0  0  0  0  0
    5.9316   -3.2784    0.0000 H    0  0  0  0  0  0  0  0  0  0  0  0
    6.7287   -3.2784    0.0000 H    0  0  0  0  0  0  0  0  0  0  0  0
    2.4675   -3.2784    0.0000 H    0  0  0  0  0  0  0  0  0  0  0  0
    4.3426   -1.4111    0.0000 H    0  0  0  0  0  0  0  0  0  0  0  0
    3.9441   -0.7208    0.0000 H    0  0  0  0  0  0  0  0  0  0  0  0
    3.2646   -3.2784    0.0000 H    0  0  0  0  0  0  0  0  0  0  0  0
    7.5947   -1.8285    0.0000 H    0  0  0  0  0  0  0  0  0  0  0  0
    6.7976   -1.8285    0.0000 H    0  0  0  0  0  0  0  0  0  0  0  0
    1.3894   -2.1957    0.0000 H    0  0  0  0  0  0  0  0  0  0  0  0
    1.7880   -2.8860    0.0000 H    0  0  0  0  0  0  0  0  0  0  0  0
    3.2646   -0.3285    0.0000 H    0  0  0  0  0  0  0  0  0  0  0  0
    2.4675   -0.3285    0.0000 H    0  0  0  0  0  0  0  0  0  0  0  0
    7.6636   -3.2784    0.0000 H    0  0  0  0  0  0  0  0  0  0  0  0
    8.4607   -3.2784    0.0000 H    0  0  0  0  0  0  0  0  0  0  0  0
    9.7942   -3.4234    0.0000 H    0  0  0  0  0  0  0  0  0  0  0  0
    8.3913   -0.9934    0.0000 H    0  0  0  0  0  0  0  0  0  0  0  0
    9.7942   -0.1834    0.0000 H    0  0  0  0  0  0  0  0  0  0  0  0
   13.3097   -0.3034    0.0000 H    0  0  0  0  0  0  0  0  0  0  0  0
   10.6426    0.5683    0.0000 H    0  0  0  0  0  0  0  0  0  0  0  0
   13.8130    1.2364    0.0000 H    0  0  0  0  0  0  0  0  0  0  0  0
   11.1459    2.1081    0.0000 H    0  0  0  0  0  0  0  0  0  0  0  0
  1 27  1  0  0  0  0
  2  5  1  0  0  0  0
  2 19  1  0  0  0  0
  3 12  1  0  0  0  0
  3 13  1  0  0  0  0
  4  6  1  0  0  0  0
  4  9  1  0  0  0  0
  4 10  1  0  0  0  0
  5 21  2  0  0  0  0
  6  7  1  0  0  0  0
  6 28  1  0  0  0  0
  6 29  1  0  0  0  0
  7  8  1  0  0  0  0
  7 30  1  0  0  0  0
  7 31  1  0  0  0  0
  8 11  1  0  0  0  0
  8 32  1  0  0  0  0
  8 33  1  0  0  0  0
  9 12  1  0  0  0  0
  9 34  1  0  0  0  0
  9 37  1  0  0  0  0
 10 13  1  0  0  0  0
 10 35  1  0  0  0  0
 10 36  1  0  0  0  0
 11 14  1  0  0  0  0
 11 38  1  0  0  0  0
 11 39  1  0  0  0  0
 12 40  1  0  0  0  0
 12 41  1  0  0  0  0
 13 42  1  0  0  0  0
 13 43  1  0  0  0  0
 14 15  1  0  0  0  0
 14 44  1  0  0  0  0
 14 45  1  0  0  0  0
 15 16  2  0  0  0  0
 15 17  1  0  0  0  0
 16 19  1  0  0  0  0
 16 46  1  0  0  0  0
 17 20  2  0  0  0  0
 17 47  1  0  0  0  0
 18 19  2  0  0  0  0
 18 20  1  0  0  0  0
 18 21  1  0  0  0  0
 20 48  1  0  0  0  0
 21 22  1  0  0  0  0
 22 23  2  0  0  0  0
 22 24  1  0  0  0  0
 23 25  1  0  0  0  0
 23 49  1  0  0  0  0
 24 26  2  0  0  0  0
 24 50  1  0  0  0  0
 25 27  2  0  0  0  0
 25 51  1  0  0  0  0
 26 27  1  0  0  0  0
 26 52  1  0  0  0  0
M  END
> <PUBCHEM_COMPOUND_CID>
44570982

> <PUBCHEM_COMPOUND_CANONICALIZED>
1

> <PUBCHEM_CACTVS_COMPLEXITY>
440

> <PUBCHEM_CACTVS_HBOND_ACCEPTOR>
4

> <PUBCHEM_CACTVS_HBOND_DONOR>
0

> <PUBCHEM_CACTVS_ROTATABLE_BOND>
7

> <PUBCHEM_CACTVS_SUBSKEYS>
AAADceB7IABAEAAAAAAAAAAAAAAAAWAAAAA8YIAAAAAAAFgB9AAAHgRAQAABrAjh3gYwgdMABACkAyRiQACDABAgAARImDgoRLgKIKKAkZGHIARggACYyhcQgMAOQgAAgAAEAACEAAEAAAgAAAAAAAAAAA==

> <PUBCHEM_IUPAC_OPENEYE_NAME>
4-[5-[3-(4-bromophenyl)-1,2-benzothiazol-6-yl]pentyl]morpholine

> <PUBCHEM_IUPAC_CAS_NAME>
4-[5-[3-(4-bromophenyl)-1,2-benzothiazol-6-yl]pentyl]morpholine

> <PUBCHEM_IUPAC_NAME>
4-[5-[3-(4-bromophenyl)-1,2-benzothiazol-6-yl]pentyl]morpholine

> <PUBCHEM_IUPAC_SYSTEMATIC_NAME>
4-[5-[3-(4-bromophenyl)-1,2-benzothiazol-6-yl]pentyl]morpholine

> <PUBCHEM_IUPAC_TRADITIONAL_NAME>
4-[5-[3-(4-bromophenyl)-1,2-benzothiazol-6-yl]pentyl]morpholine

> <PUBCHEM_IUPAC_INCHI>
InChI=1S/C22H25BrN2OS/c23-19-8-6-18(7-9-19)22-20-10-5-17(16-21(20)27-24-22)4-2-1-3-11-25-12-14-26-15-13-25/h5-10,16H,1-4,11-15H2

> <PUBCHEM_IUPAC_INCHIKEY>
CMTFYZXNPSNMTR-UHFFFAOYSA-N

> <PUBCHEM_XLOGP3_AA>
5.9

> <PUBCHEM_EXACT_MASS>
444.087097

> <PUBCHEM_MOLECULAR_FORMULA>
C22H25BrN2OS

> <PUBCHEM_MOLECULAR_WEIGHT>
445.4157

> <PUBCHEM_OPENEYE_CAN_SMILES>
C1COCCN1CCCCCC2=CC3=C(C=C2)C(=NS3)C4=CC=C(C=C4)Br

> <PUBCHEM_OPENEYE_ISO_SMILES>
C1COCCN1CCCCCC2=CC3=C(C=C2)C(=NS3)C4=CC=C(C=C4)Br

> <PUBCHEM_CACTVS_TPSA>
53.6

> <PUBCHEM_MONOISOTOPIC_WEIGHT>
444.087097

> <PUBCHEM_TOTAL_CHARGE>
0

> <PUBCHEM_HEAVY_ATOM_COUNT>
27

> <PUBCHEM_ATOM_DEF_STEREO_COUNT>
0

> <PUBCHEM_ATOM_UDEF_STEREO_COUNT>
0

> <PUBCHEM_BOND_DEF_STEREO_COUNT>
0

> <PUBCHEM_BOND_UDEF_STEREO_COUNT>
0

> <PUBCHEM_ISOTOPIC_ATOM_COUNT>
0

> <PUBCHEM_COMPONENT_COUNT>
1

> <PUBCHEM_CACTVS_TAUTO_COUNT>
1

> <PUBCHEM_COORDINATE_TYPE>
1 __ 5 __ 255

> <PUBCHEM_BONDANNOTATIONS>
15  16  8 __ 15  17  8 __ 16  19  8 __ 17  20  8 __ 18  19  8 __ 18  20  8 __ 18  21  8 __ 2  19  8 __ 2  5  8 __ 22  23  8 __ 22  24  8 __ 23  25  8 __ 24  26  8 __ 25  27  8 __ 26  27  8 __ 5  21  8 __ 

$$$$
