44570938
ChemmineR-0425141737XD

 81 81  0     1  0  0  0  0  0999 V2000
    8.8070    5.0000    0.0000 S   0  0  0  0  0  0  0  0  0  0  0  0
    8.8070    0.0000    0.0000 F   0  0  0  0  0  0  0  0  0  0  0  0
    7.8070    1.0000    0.0000 F   0  0  0  0  0  0  0  0  0  0  0  0
    9.8070    1.0000    0.0000 F   0  0  0  0  0  0  0  0  0  0  0  0
    9.8070    5.0000    0.0000 O   0  0  0  0  0  0  0  0  0  0  0  0
    7.8070    5.0000    0.0000 O   0  0  0  0  0  0  0  0  0  0  0  0
   15.7352   14.0000    0.0000 O   0  0  0  0  0  0  0  0  0  0  0  0
    0.5369    7.0600    0.0000 O   0  0  0  0  0  0  0  0  0  0  0  0
    4.8671    7.5600    0.0000 O   0  0  0  0  0  0  0  0  0  0  0  0
    1.4030    8.5600    0.0000 O   0  0  0  0  0  0  0  0  0  0  0  0
    4.0010    6.0600    0.0000 O   0  0  0  0  0  0  0  0  0  0  0  0
    8.8070    6.0000    0.0000 N   0  0  3  0  0  0  0  0  0  0  0  0
   14.0031   12.0000    0.0000 N   0  0  3  0  0  0  0  0  0  0  0  0
   11.4050    7.5000    0.0000 C   0  0  0  0  0  0  0  0  0  0  0  0
    9.6730    6.5000    0.0000 C   0  0  0  0  0  0  0  0  0  0  0  0
   10.5390    8.0000    0.0000 C   0  0  0  0  0  0  0  0  0  0  0  0
   11.4050    6.5000    0.0000 C   0  0  0  0  0  0  0  0  0  0  0  0
    9.6730    7.5000    0.0000 C   0  0  0  0  0  0  0  0  0  0  0  0
   10.5390    6.0000    0.0000 C   0  0  0  0  0  0  0  0  0  0  0  0
   12.2711    8.0000    0.0000 C   0  0  0  0  0  0  0  0  0  0  0  0
   12.2711    9.0000    0.0000 C   0  0  0  0  0  0  0  0  0  0  0  0
   13.1371    9.5000    0.0000 C   0  0  0  0  0  0  0  0  0  0  0  0
    7.9409    6.5000    0.0000 C   0  0  0  0  0  0  0  0  0  0  0  0
   13.1371   10.5000    0.0000 C   0  0  0  0  0  0  0  0  0  0  0  0
    8.8070    4.0000    0.0000 C   0  0  0  0  0  0  0  0  0  0  0  0
   14.0031   11.0000    0.0000 C   0  0  0  0  0  0  0  0  0  0  0  0
    7.9409    3.5000    0.0000 C   0  0  0  0  0  0  0  0  0  0  0  0
    9.6730    3.5000    0.0000 C   0  0  0  0  0  0  0  0  0  0  0  0
   14.8691   12.5000    0.0000 C   0  0  0  0  0  0  0  0  0  0  0  0
   13.1371   12.5000    0.0000 C   0  0  0  0  0  0  0  0  0  0  0  0
    7.9409    2.5000    0.0000 C   0  0  0  0  0  0  0  0  0  0  0  0
    9.6730    2.5000    0.0000 C   0  0  0  0  0  0  0  0  0  0  0  0
    8.8070    2.0000    0.0000 C   0  0  0  0  0  0  0  0  0  0  0  0
   14.8691   13.5000    0.0000 C   0  0  0  0  0  0  0  0  0  0  0  0
   13.1371   13.5000    0.0000 C   0  0  0  0  0  0  0  0  0  0  0  0
    8.8070    1.0000    0.0000 C   0  0  0  0  0  0  0  0  0  0  0  0
    2.2690    7.0600    0.0000 C   0  0  0  0  0  0  0  0  0  0  0  0
    3.1350    7.5600    0.0000 C   0  0  0  0  0  0  0  0  0  0  0  0
    4.0010    7.0600    0.0000 C   0  0  0  0  0  0  0  0  0  0  0  0
    1.4030    7.5600    0.0000 C   0  0  0  0  0  0  0  0  0  0  0  0
   11.4050    8.1200    0.0000 H   0  0  0  0  0  0  0  0  0  0  0  0
    9.6730    5.8800    0.0000 H   0  0  0  0  0  0  0  0  0  0  0  0
   11.6171    5.9174    0.0000 H   0  0  0  0  0  0  0  0  0  0  0  0
   12.0156    6.6077    0.0000 H   0  0  0  0  0  0  0  0  0  0  0  0
   10.9375    8.4750    0.0000 H   0  0  0  0  0  0  0  0  0  0  0  0
   10.1405    8.4750    0.0000 H   0  0  0  0  0  0  0  0  0  0  0  0
   10.1405    5.5250    0.0000 H   0  0  0  0  0  0  0  0  0  0  0  0
   10.9375    5.5250    0.0000 H   0  0  0  0  0  0  0  0  0  0  0  0
    9.4609    8.0826    0.0000 H   0  0  0  0  0  0  0  0  0  0  0  0
    9.0624    7.3923    0.0000 H   0  0  0  0  0  0  0  0  0  0  0  0
   12.4831    7.4174    0.0000 H   0  0  0  0  0  0  0  0  0  0  0  0
   12.8816    8.1077    0.0000 H   0  0  0  0  0  0  0  0  0  0  0  0
   12.0590    9.5826    0.0000 H   0  0  0  0  0  0  0  0  0  0  0  0
   11.6605    8.8923    0.0000 H   0  0  0  0  0  0  0  0  0  0  0  0
   13.3491    8.9174    0.0000 H   0  0  0  0  0  0  0  0  0  0  0  0
   13.7477    9.6077    0.0000 H   0  0  0  0  0  0  0  0  0  0  0  0
    8.2509    7.0369    0.0000 H   0  0  0  0  0  0  0  0  0  0  0  0
    7.4040    6.8100    0.0000 H   0  0  0  0  0  0  0  0  0  0  0  0
    7.6309    5.9631    0.0000 H   0  0  0  0  0  0  0  0  0  0  0  0
   12.9250   11.0826    0.0000 H   0  0  0  0  0  0  0  0  0  0  0  0
   12.5265   10.3923    0.0000 H   0  0  0  0  0  0  0  0  0  0  0  0
   14.2152   10.4174    0.0000 H   0  0  0  0  0  0  0  0  0  0  0  0
   14.6137   11.1077    0.0000 H   0  0  0  0  0  0  0  0  0  0  0  0
    7.4040    3.8100    0.0000 H   0  0  0  0  0  0  0  0  0  0  0  0
   10.2099    3.8100    0.0000 H   0  0  0  0  0  0  0  0  0  0  0  0
   15.0812   11.9174    0.0000 H   0  0  0  0  0  0  0  0  0  0  0  0
   15.4797   12.6077    0.0000 H   0  0  0  0  0  0  0  0  0  0  0  0
   12.5265   12.6077    0.0000 H   0  0  0  0  0  0  0  0  0  0  0  0
   12.9250   11.9174    0.0000 H   0  0  0  0  0  0  0  0  0  0  0  0
    7.4040    2.1900    0.0000 H   0  0  0  0  0  0  0  0  0  0  0  0
   10.2099    2.1900    0.0000 H   0  0  0  0  0  0  0  0  0  0  0  0
   14.6571   14.0826    0.0000 H   0  0  0  0  0  0  0  0  0  0  0  0
   14.2586   13.3923    0.0000 H   0  0  0  0  0  0  0  0  0  0  0  0
   13.7571   13.5000    0.0000 H   0  0  0  0  0  0  0  0  0  0  0  0
   13.1371   14.1200    0.0000 H   0  0  0  0  0  0  0  0  0  0  0  0
   12.5171   13.5000    0.0000 H   0  0  0  0  0  0  0  0  0  0  0  0
   15.7352   14.6200    0.0000 H   0  0  0  0  0  0  0  0  0  0  0  0
    3.1350    8.1800    0.0000 H   0  0  0  0  0  0  0  0  0  0  0  0
    2.2690    6.4400    0.0000 H   0  0  0  0  0  0  0  0  0  0  0  0
    0.0000    7.3700    0.0000 H   0  0  0  0  0  0  0  0  0  0  0  0
    5.4040    7.2500    0.0000 H   0  0  0  0  0  0  0  0  0  0  0  0
  1  5  2  0  0  0  0
  1  6  2  0  0  0  0
  1 12  1  0  0  0  0
  1 25  1  0  0  0  0
  2 36  1  0  0  0  0
  3 36  1  0  0  0  0
  4 36  1  0  0  0  0
  7 34  1  0  0  0  0
  7 77  1  0  0  0  0
  8 40  1  0  0  0  0
  8 80  1  0  0  0  0
  9 39  1  0  0  0  0
  9 81  1  0  0  0  0
 10 40  2  0  0  0  0
 11 39  2  0  0  0  0
 12 15  1  0  0  0  0
 12 23  1  0  0  0  0
 13 26  1  0  0  0  0
 13 29  1  0  0  0  0
 13 30  1  0  0  0  0
 14 16  1  0  0  0  0
 14 17  1  0  0  0  0
 14 20  1  0  0  0  0
 14 41  1  0  0  0  0
 15 18  1  0  0  0  0
 15 19  1  0  0  0  0
 15 42  1  0  0  0  0
 16 18  1  0  0  0  0
 16 45  1  0  0  0  0
 16 46  1  0  0  0  0
 17 19  1  0  0  0  0
 17 43  1  0  0  0  0
 17 44  1  0  0  0  0
 18 49  1  0  0  0  0
 18 50  1  0  0  0  0
 19 47  1  0  0  0  0
 19 48  1  0  0  0  0
 20 21  1  0  0  0  0
 20 51  1  0  0  0  0
 20 52  1  0  0  0  0
 21 22  1  0  0  0  0
 21 53  1  0  0  0  0
 21 54  1  0  0  0  0
 22 24  1  0  0  0  0
 22 55  1  0  0  0  0
 22 56  1  0  0  0  0
 23 57  1  0  0  0  0
 23 58  1  0  0  0  0
 23 59  1  0  0  0  0
 24 26  1  0  0  0  0
 24 60  1  0  0  0  0
 24 61  1  0  0  0  0
 25 27  2  0  0  0  0
 25 28  1  0  0  0  0
 26 62  1  0  0  0  0
 26 63  1  0  0  0  0
 27 31  1  0  0  0  0
 27 64  1  0  0  0  0
 28 32  2  0  0  0  0
 28 65  1  0  0  0  0
 29 34  1  0  0  0  0
 29 66  1  0  0  0  0
 29 67  1  0  0  0  0
 30 35  1  0  0  0  0
 30 68  1  0  0  0  0
 30 69  1  0  0  0  0
 31 33  2  0  0  0  0
 31 70  1  0  0  0  0
 32 33  1  0  0  0  0
 32 71  1  0  0  0  0
 33 36  1  0  0  0  0
 34 72  1  0  0  0  0
 34 73  1  0  0  0  0
 35 74  1  0  0  0  0
 35 75  1  0  0  0  0
 35 76  1  0  0  0  0
 37 38  2  0  0  0  0
 37 40  1  0  0  0  0
 37 79  1  0  0  0  0
 38 39  1  0  0  0  0
 38 78  1  0  0  0  0
M  END
> <PUBCHEM_COMPOUND_CID>
44570938

> <PUBCHEM_COMPOUND_CANONICALIZED>
1

> <PUBCHEM_CACTVS_COMPLEXITY>
742

> <PUBCHEM_CACTVS_HBOND_ACCEPTOR>
12

> <PUBCHEM_CACTVS_HBOND_DONOR>
3

> <PUBCHEM_CACTVS_ROTATABLE_BOND>
14

> <PUBCHEM_CACTVS_SUBSKEYS>
AAADcfB7OYBAAAAAAAAAAAAAAAAAAAAAAAAwYAAAAAAAAAABAAAAHwQASAAADSjh2BYyCYMAAgKIAiDSCHBCABAgAAAIiBgIAMgKNCKAkRCEMAAggACYmYcQgMAOEAAAAAAAAAAwAAAAAAAAAAAAAAAAAA==

> <PUBCHEM_IUPAC_OPENEYE_NAME>
N-[4-[5-[ethyl(2-hydroxyethyl)amino]pentyl]cyclohexyl]-N-methyl-4-(trifluoromethyl)benzenesulfonamide;fumaric acid

> <PUBCHEM_IUPAC_CAS_NAME>
(E)-2-butenedioic acid;N-[4-[5-[ethyl(2-hydroxyethyl)amino]pentyl]cyclohexyl]-N-methyl-4-(trifluoromethyl)benzenesulfonamide

> <PUBCHEM_IUPAC_NAME>
(E)-but-2-enedioic acid;N-[4-[5-[ethyl(2-hydroxyethyl)amino]pentyl]cyclohexyl]-N-methyl-4-(trifluoromethyl)benzenesulfonamide

> <PUBCHEM_IUPAC_SYSTEMATIC_NAME>
(E)-but-2-enedioic acid;N-[4-[5-[ethyl(2-hydroxyethyl)amino]pentyl]cyclohexyl]-N-methyl-4-(trifluoromethyl)benzenesulfonamide

> <PUBCHEM_IUPAC_TRADITIONAL_NAME>
N-[4-[5-[ethyl(2-hydroxyethyl)amino]pentyl]cyclohexyl]-N-methyl-4-(trifluoromethyl)benzenesulfonamide;fumaric acid

> <PUBCHEM_IUPAC_INCHI>
InChI=1S/C23H37F3N2O3S.C4H4O4/c1-3-28(17-18-29)16-6-4-5-7-19-8-12-21(13-9-19)27(2)32(30,31)22-14-10-20(11-15-22)23(24,25)26;5-3(6)1-2-4(7)8/h10-11,14-15,19,21,29H,3-9,12-13,16-18H2,1-2H3;1-2H,(H,5,6)(H,7,8)/b;2-1+

> <PUBCHEM_IUPAC_INCHIKEY>
HLMQBJWKRFNKAE-WLHGVMLRSA-N

> <PUBCHEM_EXACT_MASS>
594.258657

> <PUBCHEM_MOLECULAR_FORMULA>
C27H41F3N2O7S

> <PUBCHEM_MOLECULAR_WEIGHT>
594.68385

> <PUBCHEM_OPENEYE_CAN_SMILES>
CCN(CCCCCC1CCC(CC1)N(C)S(=O)(=O)C2=CC=C(C=C2)C(F)(F)F)CCO.C(=CC(=O)O)C(=O)O

> <PUBCHEM_OPENEYE_ISO_SMILES>
CCN(CCCCCC1CCC(CC1)N(C)S(=O)(=O)C2=CC=C(C=C2)C(F)(F)F)CCO.C(=C/C(=O)O)\C(=O)O

> <PUBCHEM_CACTVS_TPSA>
144

> <PUBCHEM_MONOISOTOPIC_WEIGHT>
594.258657

> <PUBCHEM_TOTAL_CHARGE>
0

> <PUBCHEM_HEAVY_ATOM_COUNT>
40

> <PUBCHEM_ATOM_DEF_STEREO_COUNT>
0

> <PUBCHEM_ATOM_UDEF_STEREO_COUNT>
0

> <PUBCHEM_BOND_DEF_STEREO_COUNT>
1

> <PUBCHEM_BOND_UDEF_STEREO_COUNT>
0

> <PUBCHEM_ISOTOPIC_ATOM_COUNT>
0

> <PUBCHEM_COMPONENT_COUNT>
2

> <PUBCHEM_CACTVS_TAUTO_COUNT>
1

> <PUBCHEM_COORDINATE_TYPE>
1 __ 5 __ 255

> <PUBCHEM_BONDANNOTATIONS>
25  27  8 __ 25  28  8 __ 27  31  8 __ 28  32  8 __ 31  33  8 __ 32  33  8 __ 

$$$$
