44588877
ChemmineR-0425141737XD

 26 28  0     0  0  0  0  0  0999 V2000
    3.7320   -2.8100    0.0000 Cl   0  0  0  0  0  0  0  0  0  0  0  0
    2.0000    2.1900    0.0000 O    0  0  0  0  0  0  0  0  0  0  0  0
    5.4641    0.1900    0.0000 N    0  0  0  0  0  0  0  0  0  0  0  0
    7.2764   -1.0053    0.0000 N    0  0  0  0  0  0  0  0  0  0  0  0
    4.5981   -1.3100    0.0000 N    0  0  0  0  0  0  0  0  0  0  0  0
    7.2764   -2.6147    0.0000 N    0  0  0  0  0  0  0  0  0  0  0  0
    5.4641   -2.8100    0.0000 N    0  0  0  0  0  0  0  0  0  0  0  0
    6.3301   -1.3100    0.0000 C    0  0  0  0  0  0  0  0  0  0  0  0
    5.4641   -0.8100    0.0000 C    0  0  0  0  0  0  0  0  0  0  0  0
    6.3301   -2.3100    0.0000 C    0  0  0  0  0  0  0  0  0  0  0  0
    4.5981    0.6900    0.0000 C    0  0  0  0  0  0  0  0  0  0  0  0
    4.5981    1.6900    0.0000 C    0  0  0  0  0  0  0  0  0  0  0  0
    3.7320    0.1900    0.0000 C    0  0  0  0  0  0  0  0  0  0  0  0
    7.8600   -1.8100    0.0000 C    0  0  0  0  0  0  0  0  0  0  0  0
    3.7320    2.1900    0.0000 C    0  0  0  0  0  0  0  0  0  0  0  0
    2.8660    0.6900    0.0000 C    0  0  0  0  0  0  0  0  0  0  0  0
    4.5981   -2.3100    0.0000 C    0  0  0  0  0  0  0  0  0  0  0  0
    2.8660    1.6900    0.0000 C    0  0  0  0  0  0  0  0  0  0  0  0
    6.0010    0.5000    0.0000 H    0  0  0  0  0  0  0  0  0  0  0  0
    7.4690   -0.4159    0.0000 H    0  0  0  0  0  0  0  0  0  0  0  0
    5.1350    2.0000    0.0000 H    0  0  0  0  0  0  0  0  0  0  0  0
    3.7320   -0.4300    0.0000 H    0  0  0  0  0  0  0  0  0  0  0  0
    8.4800   -1.8100    0.0000 H    0  0  0  0  0  0  0  0  0  0  0  0
    3.7320    2.8100    0.0000 H    0  0  0  0  0  0  0  0  0  0  0  0
    2.3291    0.3800    0.0000 H    0  0  0  0  0  0  0  0  0  0  0  0
    2.0000    2.8100    0.0000 H    0  0  0  0  0  0  0  0  0  0  0  0
  1 17  1  0  0  0  0
  2 18  1  0  0  0  0
  2 26  1  0  0  0  0
  3  9  1  0  0  0  0
  3 11  1  0  0  0  0
  3 19  1  0  0  0  0
  4  8  1  0  0  0  0
  4 14  1  0  0  0  0
  4 20  1  0  0  0  0
  5  9  2  0  0  0  0
  5 17  1  0  0  0  0
  6 10  1  0  0  0  0
  6 14  2  0  0  0  0
  7 10  1  0  0  0  0
  7 17  2  0  0  0  0
  8  9  1  0  0  0  0
  8 10  2  0  0  0  0
 11 12  2  0  0  0  0
 11 13  1  0  0  0  0
 12 15  1  0  0  0  0
 12 21  1  0  0  0  0
 13 16  2  0  0  0  0
 13 22  1  0  0  0  0
 14 23  1  0  0  0  0
 15 18  2  0  0  0  0
 15 24  1  0  0  0  0
 16 18  1  0  0  0  0
 16 25  1  0  0  0  0
M  END
> <PUBCHEM_COMPOUND_CID>
44588877

> <PUBCHEM_COMPOUND_CANONICALIZED>
1

> <PUBCHEM_CACTVS_COMPLEXITY>
287

> <PUBCHEM_CACTVS_HBOND_ACCEPTOR>
5

> <PUBCHEM_CACTVS_HBOND_DONOR>
3

> <PUBCHEM_CACTVS_ROTATABLE_BOND>
2

> <PUBCHEM_CACTVS_SUBSKEYS>
AAADccBzoAAEAAAAAAAAAAAAAAAAAWAAAAA8QAAAAAAAAFgB/AAAHgIQCAAACAyBlwQ19r7JkgCgASZjZACCgC2xMqAJ2aAufJiIbmLC2dOUdAhs0BPI2CewQAAAAEAAAAAAAAAAgAAAAAAAAAAAAAAAAA==

> <PUBCHEM_IUPAC_OPENEYE_NAME>
4-[(2-chloro-7H-purin-6-yl)amino]phenol

> <PUBCHEM_IUPAC_CAS_NAME>
4-[(2-chloro-7H-purin-6-yl)amino]phenol

> <PUBCHEM_IUPAC_NAME>
4-[(2-chloro-7H-purin-6-yl)amino]phenol

> <PUBCHEM_IUPAC_SYSTEMATIC_NAME>
4-[(2-chloranyl-7H-purin-6-yl)amino]phenol

> <PUBCHEM_IUPAC_TRADITIONAL_NAME>
4-[(2-chloro-7H-purin-6-yl)amino]phenol

> <PUBCHEM_IUPAC_INCHI>
InChI=1S/C11H8ClN5O/c12-11-16-9-8(13-5-14-9)10(17-11)15-6-1-3-7(18)4-2-6/h1-5,18H,(H2,13,14,15,16,17)

> <PUBCHEM_IUPAC_INCHIKEY>
VHUGOHZIGGJTGX-UHFFFAOYSA-N

> <PUBCHEM_XLOGP3_AA>
2.6

> <PUBCHEM_EXACT_MASS>
261.041738

> <PUBCHEM_MOLECULAR_FORMULA>
C11H8ClN5O

> <PUBCHEM_MOLECULAR_WEIGHT>
261.66712

> <PUBCHEM_OPENEYE_CAN_SMILES>
C1=CC(=CC=C1NC2=NC(=NC3=C2NC=N3)Cl)O

> <PUBCHEM_OPENEYE_ISO_SMILES>
C1=CC(=CC=C1NC2=NC(=NC3=C2NC=N3)Cl)O

> <PUBCHEM_CACTVS_TPSA>
86.7

> <PUBCHEM_MONOISOTOPIC_WEIGHT>
261.041738

> <PUBCHEM_TOTAL_CHARGE>
0

> <PUBCHEM_HEAVY_ATOM_COUNT>
18

> <PUBCHEM_ATOM_DEF_STEREO_COUNT>
0

> <PUBCHEM_ATOM_UDEF_STEREO_COUNT>
0

> <PUBCHEM_BOND_DEF_STEREO_COUNT>
0

> <PUBCHEM_BOND_UDEF_STEREO_COUNT>
0

> <PUBCHEM_ISOTOPIC_ATOM_COUNT>
0

> <PUBCHEM_COMPONENT_COUNT>
1

> <PUBCHEM_CACTVS_TAUTO_COUNT>
24

> <PUBCHEM_COORDINATE_TYPE>
1 __ 5 __ 255

> <PUBCHEM_BONDANNOTATIONS>
11  12  8 __ 11  13  8 __ 12  15  8 __ 13  16  8 __ 15  18  8 __ 16  18  8 __ 4  14  8 __ 4  8  8 __ 5  17  8 __ 5  9  8 __ 6  10  8 __ 6  14  8 __ 7  10  8 __ 7  17  8 __ 8  10  8 __ 8  9  8 __ 

$$$$
