44588876
ChemmineR-0425141737XD

 26 28  0     0  0  0  0  0  0999 V2000
    2.8660   -3.1550    0.0000 Cl   0  0  0  0  0  0  0  0  0  0  0  0
    2.8660    2.8450    0.0000 O    0  0  0  0  0  0  0  0  0  0  0  0
    4.5981   -0.1550    0.0000 N    0  0  0  0  0  0  0  0  0  0  0  0
    6.4103   -1.3503    0.0000 N    0  0  0  0  0  0  0  0  0  0  0  0
    3.7320   -1.6550    0.0000 N    0  0  0  0  0  0  0  0  0  0  0  0
    6.4103   -2.9597    0.0000 N    0  0  0  0  0  0  0  0  0  0  0  0
    4.5981   -3.1550    0.0000 N    0  0  0  0  0  0  0  0  0  0  0  0
    5.4641   -1.6550    0.0000 C    0  0  0  0  0  0  0  0  0  0  0  0
    4.5981   -1.1550    0.0000 C    0  0  0  0  0  0  0  0  0  0  0  0
    5.4641   -2.6550    0.0000 C    0  0  0  0  0  0  0  0  0  0  0  0
    3.7320    0.3450    0.0000 C    0  0  0  0  0  0  0  0  0  0  0  0
    3.7320    1.3450    0.0000 C    0  0  0  0  0  0  0  0  0  0  0  0
    2.8660   -0.1550    0.0000 C    0  0  0  0  0  0  0  0  0  0  0  0
    6.9939   -2.1550    0.0000 C    0  0  0  0  0  0  0  0  0  0  0  0
    2.8660    1.8450    0.0000 C    0  0  0  0  0  0  0  0  0  0  0  0
    2.0000    0.3450    0.0000 C    0  0  0  0  0  0  0  0  0  0  0  0
    3.7320   -2.6550    0.0000 C    0  0  0  0  0  0  0  0  0  0  0  0
    2.0000    1.3450    0.0000 C    0  0  0  0  0  0  0  0  0  0  0  0
    5.1350    0.1550    0.0000 H    0  0  0  0  0  0  0  0  0  0  0  0
    6.6029   -0.7609    0.0000 H    0  0  0  0  0  0  0  0  0  0  0  0
    4.2690    1.6550    0.0000 H    0  0  0  0  0  0  0  0  0  0  0  0
    2.8660   -0.7750    0.0000 H    0  0  0  0  0  0  0  0  0  0  0  0
    7.6139   -2.1550    0.0000 H    0  0  0  0  0  0  0  0  0  0  0  0
    1.4631    0.0350    0.0000 H    0  0  0  0  0  0  0  0  0  0  0  0
    1.4631    1.6550    0.0000 H    0  0  0  0  0  0  0  0  0  0  0  0
    2.3291    3.1550    0.0000 H    0  0  0  0  0  0  0  0  0  0  0  0
  1 17  1  0  0  0  0
  2 15  1  0  0  0  0
  2 26  1  0  0  0  0
  3  9  1  0  0  0  0
  3 11  1  0  0  0  0
  3 19  1  0  0  0  0
  4  8  1  0  0  0  0
  4 14  1  0  0  0  0
  4 20  1  0  0  0  0
  5  9  2  0  0  0  0
  5 17  1  0  0  0  0
  6 10  1  0  0  0  0
  6 14  2  0  0  0  0
  7 10  1  0  0  0  0
  7 17  2  0  0  0  0
  8  9  1  0  0  0  0
  8 10  2  0  0  0  0
 11 12  2  0  0  0  0
 11 13  1  0  0  0  0
 12 15  1  0  0  0  0
 12 21  1  0  0  0  0
 13 16  2  0  0  0  0
 13 22  1  0  0  0  0
 14 23  1  0  0  0  0
 15 18  2  0  0  0  0
 16 18  1  0  0  0  0
 16 24  1  0  0  0  0
 18 25  1  0  0  0  0
M  END
> <PUBCHEM_COMPOUND_CID>
44588876

> <PUBCHEM_COMPOUND_CANONICALIZED>
1

> <PUBCHEM_CACTVS_COMPLEXITY>
295

> <PUBCHEM_CACTVS_HBOND_ACCEPTOR>
5

> <PUBCHEM_CACTVS_HBOND_DONOR>
3

> <PUBCHEM_CACTVS_ROTATABLE_BOND>
2

> <PUBCHEM_CACTVS_SUBSKEYS>
AAADccBzoAAEAAAAAAAAAAAAAAAAAWAAAAA8QAAAAAAAAFgB/AAAHgIQCAAACAyBlwQ19r7JkgCgASZjZACCgC2xMqAJ2aAufJiIbmLC2dOUdAhu0BvI2CeQUAMAAAAAAgAAAAAAAAAEAAAAAAAAAAAAAA==

> <PUBCHEM_IUPAC_OPENEYE_NAME>
3-[(2-chloro-7H-purin-6-yl)amino]phenol

> <PUBCHEM_IUPAC_CAS_NAME>
3-[(2-chloro-7H-purin-6-yl)amino]phenol

> <PUBCHEM_IUPAC_NAME>
3-[(2-chloro-7H-purin-6-yl)amino]phenol

> <PUBCHEM_IUPAC_SYSTEMATIC_NAME>
3-[(2-chloranyl-7H-purin-6-yl)amino]phenol

> <PUBCHEM_IUPAC_TRADITIONAL_NAME>
3-[(2-chloro-7H-purin-6-yl)amino]phenol

> <PUBCHEM_IUPAC_INCHI>
InChI=1S/C11H8ClN5O/c12-11-16-9-8(13-5-14-9)10(17-11)15-6-2-1-3-7(18)4-6/h1-5,18H,(H2,13,14,15,16,17)

> <PUBCHEM_IUPAC_INCHIKEY>
GQQGXGBYWOXQSN-UHFFFAOYSA-N

> <PUBCHEM_XLOGP3_AA>
2.6

> <PUBCHEM_EXACT_MASS>
261.041738

> <PUBCHEM_MOLECULAR_FORMULA>
C11H8ClN5O

> <PUBCHEM_MOLECULAR_WEIGHT>
261.66712

> <PUBCHEM_OPENEYE_CAN_SMILES>
C1=CC(=CC(=C1)O)NC2=NC(=NC3=C2NC=N3)Cl

> <PUBCHEM_OPENEYE_ISO_SMILES>
C1=CC(=CC(=C1)O)NC2=NC(=NC3=C2NC=N3)Cl

> <PUBCHEM_CACTVS_TPSA>
86.7

> <PUBCHEM_MONOISOTOPIC_WEIGHT>
261.041738

> <PUBCHEM_TOTAL_CHARGE>
0

> <PUBCHEM_HEAVY_ATOM_COUNT>
18

> <PUBCHEM_ATOM_DEF_STEREO_COUNT>
0

> <PUBCHEM_ATOM_UDEF_STEREO_COUNT>
0

> <PUBCHEM_BOND_DEF_STEREO_COUNT>
0

> <PUBCHEM_BOND_UDEF_STEREO_COUNT>
0

> <PUBCHEM_ISOTOPIC_ATOM_COUNT>
0

> <PUBCHEM_COMPONENT_COUNT>
1

> <PUBCHEM_CACTVS_TAUTO_COUNT>
52

> <PUBCHEM_COORDINATE_TYPE>
1 __ 5 __ 255

> <PUBCHEM_BONDANNOTATIONS>
11  12  8 __ 11  13  8 __ 12  15  8 __ 13  16  8 __ 15  18  8 __ 16  18  8 __ 4  14  8 __ 4  8  8 __ 5  17  8 __ 5  9  8 __ 6  10  8 __ 6  14  8 __ 7  10  8 __ 7  17  8 __ 8  10  8 __ 8  9  8 __ 

$$$$
