57402229
ChemmineR-0425141737XD

 62 62  0     1  0  0  0  0  0999 V2000
    4.0000   -4.3100    0.0000 P   0  0  3  0  0  0  0  0  0  0  0  0
    5.7320   -2.3100    0.0000 O   0  0  0  0  0  0  0  0  0  0  0  0
    3.5000   -3.4440    0.0000 O   0  0  0  0  0  0  0  0  0  0  0  0
    3.1340   -4.8100    0.0000 O   0  0  0  0  0  0  0  0  0  0  0  0
    4.5000   -5.1760    0.0000 O   0  0  0  0  0  0  0  0  0  0  0  0
    6.5981    0.1900    0.0000 O   0  0  0  0  0  0  0  0  0  0  0  0
    8.3301    2.1900    0.0000 O   0  0  0  0  0  0  0  0  0  0  0  0
    9.1962    4.6900    0.0000 O   0  0  0  0  0  0  0  0  0  0  0  0
    2.2680   -9.3100    0.0000 O   0  5  0  0  0  0  0  0  0  0  0  0
    4.0000   -9.3100    0.0000 O   0  0  0  0  0  0  0  0  0  0  0  0
   10.9282    4.6900    0.0000 O   0  0  0  0  0  0  0  0  0  0  0  0
    3.1340   -8.8100    0.0000 N   0  3  0  0  0  0  0  0  0  0  0  0
   10.0622    6.1900    0.0000 N   0  0  0  0  0  0  0  0  0  0  0  0
    4.8660   -3.8100    0.0000 C   0  0  0  0  0  0  0  0  0  0  0  0
    4.8660   -2.8100    0.0000 C   0  0  0  0  0  0  0  0  0  0  0  0
    5.7320   -1.3100    0.0000 C   0  0  0  0  0  0  0  0  0  0  0  0
    6.5981   -0.8100    0.0000 C   0  0  0  0  0  0  0  0  0  0  0  0
    2.5000   -3.4440    0.0000 C   0  0  0  0  0  0  0  0  0  0  0  0
    3.1340   -5.8100    0.0000 C   0  0  0  0  0  0  0  0  0  0  0  0
    7.4641    0.6900    0.0000 C   0  0  0  0  0  0  0  0  0  0  0  0
    7.4641    1.6900    0.0000 C   0  0  0  0  0  0  0  0  0  0  0  0
    2.2680   -6.3100    0.0000 C   0  0  0  0  0  0  0  0  0  0  0  0
    4.0000   -6.3100    0.0000 C   0  0  0  0  0  0  0  0  0  0  0  0
    2.0000   -2.5780    0.0000 C   0  0  0  0  0  0  0  0  0  0  0  0
    2.2680   -7.3100    0.0000 C   0  0  0  0  0  0  0  0  0  0  0  0
    4.0000   -7.3100    0.0000 C   0  0  0  0  0  0  0  0  0  0  0  0
    3.1340   -7.8100    0.0000 C   0  0  0  0  0  0  0  0  0  0  0  0
    8.3301    3.1900    0.0000 C   0  0  0  0  0  0  0  0  0  0  0  0
    9.1962    3.6900    0.0000 C   0  0  0  0  0  0  0  0  0  0  0  0
   10.0622    5.1900    0.0000 C   0  0  0  0  0  0  0  0  0  0  0  0
   10.9282    6.6900    0.0000 C   0  0  0  0  0  0  0  0  0  0  0  0
   10.9282    7.6900    0.0000 C   0  0  0  0  0  0  0  0  0  0  0  0
   10.9282    8.6900    0.0000 C   0  0  0  0  0  0  0  0  0  0  0  0
    5.0781   -4.3926    0.0000 H   0  0  0  0  0  0  0  0  0  0  0  0
    5.4766   -3.7023    0.0000 H   0  0  0  0  0  0  0  0  0  0  0  0
    4.6540   -2.2274    0.0000 H   0  0  0  0  0  0  0  0  0  0  0  0
    4.2554   -2.9177    0.0000 H   0  0  0  0  0  0  0  0  0  0  0  0
    5.5200   -0.7274    0.0000 H   0  0  0  0  0  0  0  0  0  0  0  0
    5.1215   -1.4177    0.0000 H   0  0  0  0  0  0  0  0  0  0  0  0
    6.8101   -1.3926    0.0000 H   0  0  0  0  0  0  0  0  0  0  0  0
    7.2087   -0.7023    0.0000 H   0  0  0  0  0  0  0  0  0  0  0  0
    1.9174   -3.6560    0.0000 H   0  0  0  0  0  0  0  0  0  0  0  0
    2.6077   -4.0546    0.0000 H   0  0  0  0  0  0  0  0  0  0  0  0
    7.6762    0.1074    0.0000 H   0  0  0  0  0  0  0  0  0  0  0  0
    8.0747    0.7977    0.0000 H   0  0  0  0  0  0  0  0  0  0  0  0
    7.2520    2.2726    0.0000 H   0  0  0  0  0  0  0  0  0  0  0  0
    6.8535    1.5823    0.0000 H   0  0  0  0  0  0  0  0  0  0  0  0
    1.7310   -6.0000    0.0000 H   0  0  0  0  0  0  0  0  0  0  0  0
    4.5369   -6.0000    0.0000 H   0  0  0  0  0  0  0  0  0  0  0  0
    2.5369   -2.2680    0.0000 H   0  0  0  0  0  0  0  0  0  0  0  0
    1.6900   -2.0410    0.0000 H   0  0  0  0  0  0  0  0  0  0  0  0
    1.4631   -2.8880    0.0000 H   0  0  0  0  0  0  0  0  0  0  0  0
    1.7310   -7.6200    0.0000 H   0  0  0  0  0  0  0  0  0  0  0  0
    4.5369   -7.6200    0.0000 H   0  0  0  0  0  0  0  0  0  0  0  0
    8.1181    3.7726    0.0000 H   0  0  0  0  0  0  0  0  0  0  0  0
    7.7196    3.0823    0.0000 H   0  0  0  0  0  0  0  0  0  0  0  0
    9.4082    3.1074    0.0000 H   0  0  0  0  0  0  0  0  0  0  0  0
    9.8067    3.7977    0.0000 H   0  0  0  0  0  0  0  0  0  0  0  0
    9.5252    6.5000    0.0000 H   0  0  0  0  0  0  0  0  0  0  0  0
   11.1403    6.1074    0.0000 H   0  0  0  0  0  0  0  0  0  0  0  0
   11.5388    6.7977    0.0000 H   0  0  0  0  0  0  0  0  0  0  0  0
   10.9282    9.3100    0.0000 H   0  0  0  0  0  0  0  0  0  0  0  0
  1  3  1  0  0  0  0
  1  4  1  0  0  0  0
  1  5  2  0  0  0  0
  1 14  1  0  0  0  0
  2 15  1  0  0  0  0
  2 16  1  0  0  0  0
  3 18  1  0  0  0  0
  4 19  1  0  0  0  0
  6 17  1  0  0  0  0
  6 20  1  0  0  0  0
  7 21  1  0  0  0  0
  7 28  1  0  0  0  0
  8 29  1  0  0  0  0
  8 30  1  0  0  0  0
  9 12  1  0  0  0  0
 10 12  2  0  0  0  0
 11 30  2  0  0  0  0
 12 27  1  0  0  0  0
 13 30  1  0  0  0  0
 13 31  1  0  0  0  0
 13 59  1  0  0  0  0
 14 15  1  0  0  0  0
 14 34  1  0  0  0  0
 14 35  1  0  0  0  0
 15 36  1  0  0  0  0
 15 37  1  0  0  0  0
 16 17  1  0  0  0  0
 16 38  1  0  0  0  0
 16 39  1  0  0  0  0
 17 40  1  0  0  0  0
 17 41  1  0  0  0  0
 18 24  1  0  0  0  0
 18 42  1  0  0  0  0
 18 43  1  0  0  0  0
 19 22  2  0  0  0  0
 19 23  1  0  0  0  0
 20 21  1  0  0  0  0
 20 44  1  0  0  0  0
 20 45  1  0  0  0  0
 21 46  1  0  0  0  0
 21 47  1  0  0  0  0
 22 25  1  0  0  0  0
 22 48  1  0  0  0  0
 23 26  2  0  0  0  0
 23 49  1  0  0  0  0
 24 50  1  0  0  0  0
 24 51  1  0  0  0  0
 24 52  1  0  0  0  0
 25 27  2  0  0  0  0
 25 53  1  0  0  0  0
 26 27  1  0  0  0  0
 26 54  1  0  0  0  0
 28 29  1  0  0  0  0
 28 55  1  0  0  0  0
 28 56  1  0  0  0  0
 29 57  1  0  0  0  0
 29 58  1  0  0  0  0
 31 32  1  0  0  0  0
 31 60  1  0  0  0  0
 31 61  1  0  0  0  0
 32 33  3  0  0  0  0
 33 62  1  0  0  0  0
M  END
> <PUBCHEM_COMPOUND_CID>
57402229

> <PUBCHEM_COMPOUND_CANONICALIZED>
1

> <PUBCHEM_CACTVS_COMPLEXITY>
655

> <PUBCHEM_CACTVS_HBOND_ACCEPTOR>
10

> <PUBCHEM_CACTVS_HBOND_DONOR>
1

> <PUBCHEM_CACTVS_ROTATABLE_BOND>
18

> <PUBCHEM_CACTVS_SUBSKEYS>
AAADceB7PAIAAAAAAAAAAAAAAAAAAAAAAAAwAAAAAAAAAAABAAAAHggUACAACAzpkAYyzoLQRRDJWCRCW4CCAAAgIgAoiIAObIsJJiKAkZOKMABkxhEKyAewQAAAAEAAAAAAAAAAgAAAAAAAAAAAAAAAAA==

> <PUBCHEM_IUPAC_OPENEYE_NAME>
2-[2-[2-[2-[ethoxy-(4-nitrophenoxy)phosphoryl]ethoxy]ethoxy]ethoxy]ethyl N-prop-2-ynylcarbamate

> <PUBCHEM_IUPAC_CAS_NAME>
N-prop-2-ynylcarbamic acid 2-[2-[2-[2-[ethoxy-(4-nitrophenoxy)phosphoryl]ethoxy]ethoxy]ethoxy]ethyl ester

> <PUBCHEM_IUPAC_NAME>
2-[2-[2-[2-[ethoxy-(4-nitrophenoxy)phosphoryl]ethoxy]ethoxy]ethoxy]ethyl N-prop-2-ynylcarbamate

> <PUBCHEM_IUPAC_SYSTEMATIC_NAME>
2-[2-[2-[2-[ethoxy-(4-nitrophenoxy)phosphoryl]ethoxy]ethoxy]ethoxy]ethyl N-prop-2-ynylcarbamate

> <PUBCHEM_IUPAC_TRADITIONAL_NAME>
N-propargylcarbamic acid 2-[2-[2-[2-[ethoxy-(4-nitrophenoxy)phosphoryl]ethoxy]ethoxy]ethoxy]ethyl ester

> <PUBCHEM_IUPAC_INCHI>
InChI=1S/C20H29N2O10P/c1-3-9-21-20(23)30-15-14-28-11-10-27-12-13-29-16-17-33(26,31-4-2)32-19-7-5-18(6-8-19)22(24)25/h1,5-8H,4,9-17H2,2H3,(H,21,23)

> <PUBCHEM_IUPAC_INCHIKEY>
AXTIQNVRQFGTLH-UHFFFAOYSA-N

> <PUBCHEM_XLOGP3_AA>
0.9

> <PUBCHEM_EXACT_MASS>
488.155982

> <PUBCHEM_MOLECULAR_FORMULA>
C20H29N2O10P

> <PUBCHEM_MOLECULAR_WEIGHT>
488.425422

> <PUBCHEM_OPENEYE_CAN_SMILES>
CCOP(=O)(CCOCCOCCOCCOC(=O)NCC#C)OC1=CC=C(C=C1)[N+](=O)[O-]

> <PUBCHEM_OPENEYE_ISO_SMILES>
CCOP(=O)(CCOCCOCCOCCOC(=O)NCC#C)OC1=CC=C(C=C1)[N+](=O)[O-]

> <PUBCHEM_CACTVS_TPSA>
147

> <PUBCHEM_MONOISOTOPIC_WEIGHT>
488.155982

> <PUBCHEM_TOTAL_CHARGE>
0

> <PUBCHEM_HEAVY_ATOM_COUNT>
33

> <PUBCHEM_ATOM_DEF_STEREO_COUNT>
0

> <PUBCHEM_ATOM_UDEF_STEREO_COUNT>
1

> <PUBCHEM_BOND_DEF_STEREO_COUNT>
0

> <PUBCHEM_BOND_UDEF_STEREO_COUNT>
0

> <PUBCHEM_ISOTOPIC_ATOM_COUNT>
0

> <PUBCHEM_COMPONENT_COUNT>
1

> <PUBCHEM_CACTVS_TAUTO_COUNT>
2

> <PUBCHEM_COORDINATE_TYPE>
1 __ 5 __ 255

> <PUBCHEM_BONDANNOTATIONS>
1  14  3 __ 19  22  8 __ 19  23  8 __ 22  25  8 __ 23  26  8 __ 25  27  8 __ 26  27  8 __ 

$$$$
