57400427
ChemmineR-0425141737XD

111114  0     1  0  0  0  0  0999 V2000
    3.0000    9.0121    0.0000 P   0  0  3  0  0  0  0  0  0  0  0  0
    2.0000    9.0121    0.0000 F   0  0  0  0  0  0  0  0  0  0  0  0
    3.0000   10.0121    0.0000 O   0  0  0  0  0  0  0  0  0  0  0  0
   10.7942  -10.4879    0.0000 O   0  0  0  0  0  0  0  0  0  0  0  0
    4.0000    9.0121    0.0000 O   0  0  0  0  0  0  0  0  0  0  0  0
    8.1962    2.0121    0.0000 O   0  0  0  0  0  0  0  0  0  0  0  0
   11.6603   -3.9879    0.0000 O   0  0  0  0  0  0  0  0  0  0  0  0
   12.9871   -5.8746    0.0000 O   0  5  0  0  0  0  0  0  0  0  0  0
   13.2878   -7.5803    0.0000 O   0  0  0  0  0  0  0  0  0  0  0  0
    7.3301    0.5121    0.0000 N   0  0  0  0  0  0  0  0  0  0  0  0
    9.9282   -3.9879    0.0000 N   0  0  0  0  0  0  0  0  0  0  0  0
   14.3244  -10.5121    0.0000 N   0  3  0  0  0  0  0  0  0  0  0  0
    7.2641  -10.5121    0.0000 N   0  0  0  0  0  0  0  0  0  0  0  0
    4.7320    5.0121    0.0000 C   0  0  0  0  0  0  0  0  0  0  0  0
    4.7320    6.0121    0.0000 C   0  0  0  0  0  0  0  0  0  0  0  0
    5.5981    4.5121    0.0000 C   0  0  0  0  0  0  0  0  0  0  0  0
    3.8660    6.5121    0.0000 C   0  0  0  0  0  0  0  0  0  0  0  0
    5.5981    3.5121    0.0000 C   0  0  0  0  0  0  0  0  0  0  0  0
    3.8660    7.5121    0.0000 C   0  0  0  0  0  0  0  0  0  0  0  0
    6.4641    3.0121    0.0000 C   0  0  0  0  0  0  0  0  0  0  0  0
    3.0000    8.0121    0.0000 C   0  0  0  0  0  0  0  0  0  0  0  0
    6.4641    2.0121    0.0000 C   0  0  0  0  0  0  0  0  0  0  0  0
    7.3301    1.5121    0.0000 C   0  0  0  0  0  0  0  0  0  0  0  0
    8.1962   -0.9879    0.0000 C   0  0  0  0  0  0  0  0  0  0  0  0
    9.0622   -1.4879    0.0000 C   0  0  0  0  0  0  0  0  0  0  0  0
    8.1962    0.0121    0.0000 C   0  0  0  0  0  0  0  0  0  0  0  0
    9.0622   -2.4879    0.0000 C   0  0  0  0  0  0  0  0  0  0  0  0
   10.7942   -8.4879    0.0000 C   0  0  0  0  0  0  0  0  0  0  0  0
   11.6603   -8.9879    0.0000 C   0  0  0  0  0  0  0  0  0  0  0  0
    9.9282   -8.9879    0.0000 C   0  0  0  0  0  0  0  0  0  0  0  0
    9.9282   -2.9879    0.0000 C   0  0  0  0  0  0  0  0  0  0  0  0
   10.7942   -7.4879    0.0000 C   0  0  0  0  0  0  0  0  0  0  0  0
   11.6603   -9.9879    0.0000 C   0  0  0  0  0  0  0  0  0  0  0  0
    9.9282   -9.9879    0.0000 C   0  0  0  0  0  0  0  0  0  0  0  0
   11.6603   -6.9879    0.0000 C   0  0  0  0  0  0  0  0  0  0  0  0
   12.5542   -8.4533    0.0000 C   0  0  0  0  0  0  0  0  0  0  0  0
    9.0343   -8.4533    0.0000 C   0  0  0  0  0  0  0  0  0  0  0  0
   12.5542  -10.5226    0.0000 C   0  0  0  0  0  0  0  0  0  0  0  0
    9.0343  -10.5226    0.0000 C   0  0  0  0  0  0  0  0  0  0  0  0
   13.4603  -10.0087    0.0000 C   0  0  0  0  0  0  0  0  0  0  0  0
    8.1282  -10.0087    0.0000 C   0  0  0  0  0  0  0  0  0  0  0  0
    9.9282   -6.9879    0.0000 C   0  0  0  0  0  0  0  0  0  0  0  0
   10.7942   -5.4879    0.0000 C   0  0  0  0  0  0  0  0  0  0  0  0
   11.6603   -5.9879    0.0000 C   0  0  0  0  0  0  0  0  0  0  0  0
   13.4603   -8.9671    0.0000 C   0  0  0  0  0  0  0  0  0  0  0  0
    8.1282   -8.9671    0.0000 C   0  0  0  0  0  0  0  0  0  0  0  0
    9.9282   -5.9879    0.0000 C   0  0  0  0  0  0  0  0  0  0  0  0
   10.7942   -4.4879    0.0000 C   0  0  0  0  0  0  0  0  0  0  0  0
    2.1340   10.5121    0.0000 C   0  0  0  0  0  0  0  0  0  0  0  0
   12.6451   -6.8143    0.0000 C   0  0  0  0  0  0  0  0  0  0  0  0
    2.1340   11.5121    0.0000 C   0  0  0  0  0  0  0  0  0  0  0  0
   15.1923  -10.0154    0.0000 C   0  0  0  0  0  0  0  0  0  0  0  0
   14.3205  -11.5121    0.0000 C   0  0  0  0  0  0  0  0  0  0  0  0
    6.3962  -10.0154    0.0000 C   0  0  0  0  0  0  0  0  0  0  0  0
    7.2680  -11.5121    0.0000 C   0  0  0  0  0  0  0  0  0  0  0  0
    4.1215    5.1197    0.0000 H   0  0  0  0  0  0  0  0  0  0  0  0
    4.5200    4.4295    0.0000 H   0  0  0  0  0  0  0  0  0  0  0  0
    5.3426    5.9044    0.0000 H   0  0  0  0  0  0  0  0  0  0  0  0
    4.9441    6.5947    0.0000 H   0  0  0  0  0  0  0  0  0  0  0  0
    6.2087    4.4044    0.0000 H   0  0  0  0  0  0  0  0  0  0  0  0
    5.8101    5.0947    0.0000 H   0  0  0  0  0  0  0  0  0  0  0  0
    3.2554    6.6197    0.0000 H   0  0  0  0  0  0  0  0  0  0  0  0
    3.6540    5.9295    0.0000 H   0  0  0  0  0  0  0  0  0  0  0  0
    4.9875    3.6197    0.0000 H   0  0  0  0  0  0  0  0  0  0  0  0
    5.3860    2.9295    0.0000 H   0  0  0  0  0  0  0  0  0  0  0  0
    4.4766    7.4044    0.0000 H   0  0  0  0  0  0  0  0  0  0  0  0
    4.0781    8.0947    0.0000 H   0  0  0  0  0  0  0  0  0  0  0  0
    7.0747    2.9044    0.0000 H   0  0  0  0  0  0  0  0  0  0  0  0
    6.6762    3.5947    0.0000 H   0  0  0  0  0  0  0  0  0  0  0  0
    2.3894    8.1197    0.0000 H   0  0  0  0  0  0  0  0  0  0  0  0
    2.7880    7.4295    0.0000 H   0  0  0  0  0  0  0  0  0  0  0  0
    5.8535    2.1197    0.0000 H   0  0  0  0  0  0  0  0  0  0  0  0
    6.2520    1.4295    0.0000 H   0  0  0  0  0  0  0  0  0  0  0  0
    7.5856   -0.8803    0.0000 H   0  0  0  0  0  0  0  0  0  0  0  0
    7.9841   -1.5705    0.0000 H   0  0  0  0  0  0  0  0  0  0  0  0
    9.6728   -1.5956    0.0000 H   0  0  0  0  0  0  0  0  0  0  0  0
    9.2742   -0.9053    0.0000 H   0  0  0  0  0  0  0  0  0  0  0  0
    8.8067   -0.0956    0.0000 H   0  0  0  0  0  0  0  0  0  0  0  0
    8.4082    0.5947    0.0000 H   0  0  0  0  0  0  0  0  0  0  0  0
    8.4516   -2.3803    0.0000 H   0  0  0  0  0  0  0  0  0  0  0  0
    8.8501   -3.0705    0.0000 H   0  0  0  0  0  0  0  0  0  0  0  0
    6.7932    0.2021    0.0000 H   0  0  0  0  0  0  0  0  0  0  0  0
   10.5388   -3.0956    0.0000 H   0  0  0  0  0  0  0  0  0  0  0  0
   10.1403   -2.4053    0.0000 H   0  0  0  0  0  0  0  0  0  0  0  0
   12.5470   -7.8333    0.0000 H   0  0  0  0  0  0  0  0  0  0  0  0
    9.0414   -7.8333    0.0000 H   0  0  0  0  0  0  0  0  0  0  0  0
   12.5470  -11.1425    0.0000 H   0  0  0  0  0  0  0  0  0  0  0  0
    9.0414  -11.1425    0.0000 H   0  0  0  0  0  0  0  0  0  0  0  0
    9.3913   -7.2979    0.0000 H   0  0  0  0  0  0  0  0  0  0  0  0
    9.3913   -4.2979    0.0000 H   0  0  0  0  0  0  0  0  0  0  0  0
   12.1972   -5.6779    0.0000 H   0  0  0  0  0  0  0  0  0  0  0  0
   13.9960   -8.6550    0.0000 H   0  0  0  0  0  0  0  0  0  0  0  0
    7.5925   -8.6550    0.0000 H   0  0  0  0  0  0  0  0  0  0  0  0
    9.3913   -5.6779    0.0000 H   0  0  0  0  0  0  0  0  0  0  0  0
    1.5234   10.6197    0.0000 H   0  0  0  0  0  0  0  0  0  0  0  0
    1.9219    9.9295    0.0000 H   0  0  0  0  0  0  0  0  0  0  0  0
    2.7540   11.5121    0.0000 H   0  0  0  0  0  0  0  0  0  0  0  0
    2.1340   12.1321    0.0000 H   0  0  0  0  0  0  0  0  0  0  0  0
    1.5140   11.5121    0.0000 H   0  0  0  0  0  0  0  0  0  0  0  0
   15.5002  -10.5535    0.0000 H   0  0  0  0  0  0  0  0  0  0  0  0
   15.7304   -9.7075    0.0000 H   0  0  0  0  0  0  0  0  0  0  0  0
   14.8844   -9.4773    0.0000 H   0  0  0  0  0  0  0  0  0  0  0  0
   13.7005  -11.5097    0.0000 H   0  0  0  0  0  0  0  0  0  0  0  0
   14.3181  -12.1321    0.0000 H   0  0  0  0  0  0  0  0  0  0  0  0
   14.9405  -11.5145    0.0000 H   0  0  0  0  0  0  0  0  0  0  0  0
    6.6480  -11.5145    0.0000 H   0  0  0  0  0  0  0  0  0  0  0  0
    7.2704  -12.1321    0.0000 H   0  0  0  0  0  0  0  0  0  0  0  0
    6.7041   -9.4773    0.0000 H   0  0  0  0  0  0  0  0  0  0  0  0
    5.8580   -9.7075    0.0000 H   0  0  0  0  0  0  0  0  0  0  0  0
    6.0882  -10.5535    0.0000 H   0  0  0  0  0  0  0  0  0  0  0  0
    7.8880  -11.5097    0.0000 H   0  0  0  0  0  0  0  0  0  0  0  0
  1  2  1  0  0  0  0
  1  3  1  0  0  0  0
  1  5  2  0  0  0  0
  1 21  1  0  0  0  0
  3 49  1  0  0  0  0
  4 33  1  0  0  0  0
  4 34  1  0  0  0  0
  6 23  2  0  0  0  0
  7 48  2  0  0  0  0
  8 50  1  0  0  0  0
  9 50  2  0  0  0  0
 10 23  1  0  0  0  0
 10 26  1  0  0  0  0
 10 82  1  0  0  0  0
 11 31  1  0  0  0  0
 11 48  1  0  0  0  0
 11 90  1  0  0  0  0
 12 40  2  0  0  0  0
 12 52  1  0  0  0  0
 12 53  1  0  0  0  0
 13 41  1  0  0  0  0
 13 54  1  0  0  0  0
 13 55  1  0  0  0  0
 14 15  1  0  0  0  0
 14 16  1  0  0  0  0
 14 56  1  0  0  0  0
 14 57  1  0  0  0  0
 15 17  1  0  0  0  0
 15 58  1  0  0  0  0
 15 59  1  0  0  0  0
 16 18  1  0  0  0  0
 16 60  1  0  0  0  0
 16 61  1  0  0  0  0
 17 19  1  0  0  0  0
 17 62  1  0  0  0  0
 17 63  1  0  0  0  0
 18 20  1  0  0  0  0
 18 64  1  0  0  0  0
 18 65  1  0  0  0  0
 19 21  1  0  0  0  0
 19 66  1  0  0  0  0
 19 67  1  0  0  0  0
 20 22  1  0  0  0  0
 20 68  1  0  0  0  0
 20 69  1  0  0  0  0
 21 70  1  0  0  0  0
 21 71  1  0  0  0  0
 22 23  1  0  0  0  0
 22 72  1  0  0  0  0
 22 73  1  0  0  0  0
 24 25  1  0  0  0  0
 24 26  1  0  0  0  0
 24 74  1  0  0  0  0
 24 75  1  0  0  0  0
 25 27  1  0  0  0  0
 25 76  1  0  0  0  0
 25 77  1  0  0  0  0
 26 78  1  0  0  0  0
 26 79  1  0  0  0  0
 27 31  1  0  0  0  0
 27 80  1  0  0  0  0
 27 81  1  0  0  0  0
 28 29  2  0  0  0  0
 28 30  1  0  0  0  0
 28 32  1  0  0  0  0
 29 33  1  0  0  0  0
 29 36  1  0  0  0  0
 30 34  2  0  0  0  0
 30 37  1  0  0  0  0
 31 83  1  0  0  0  0
 31 84  1  0  0  0  0
 32 35  2  0  0  0  0
 32 42  1  0  0  0  0
 33 38  2  0  0  0  0
 34 39  1  0  0  0  0
 35 44  1  0  0  0  0
 35 50  1  0  0  0  0
 36 45  2  0  0  0  0
 36 85  1  0  0  0  0
 37 46  2  0  0  0  0
 37 86  1  0  0  0  0
 38 40  1  0  0  0  0
 38 87  1  0  0  0  0
 39 41  2  0  0  0  0
 39 88  1  0  0  0  0
 40 45  1  0  0  0  0
 41 46  1  0  0  0  0
 42 47  2  0  0  0  0
 42 89  1  0  0  0  0
 43 44  2  0  0  0  0
 43 47  1  0  0  0  0
 43 48  1  0  0  0  0
 44 91  1  0  0  0  0
 45 92  1  0  0  0  0
 46 93  1  0  0  0  0
 47 94  1  0  0  0  0
 49 51  1  0  0  0  0
 49 95  1  0  0  0  0
 49 96  1  0  0  0  0
 51 97  1  0  0  0  0
 51 98  1  0  0  0  0
 51 99  1  0  0  0  0
 52100  1  0  0  0  0
 52101  1  0  0  0  0
 52102  1  0  0  0  0
 53103  1  0  0  0  0
 53104  1  0  0  0  0
 53105  1  0  0  0  0
 54108  1  0  0  0  0
 54109  1  0  0  0  0
 54110  1  0  0  0  0
 55106  1  0  0  0  0
 55107  1  0  0  0  0
 55111  1  0  0  0  0
M  END
> <PUBCHEM_COMPOUND_CID>
57400427

> <PUBCHEM_COMPOUND_CANONICALIZED>
1

> <PUBCHEM_CACTVS_COMPLEXITY>
1440

> <PUBCHEM_CACTVS_HBOND_ACCEPTOR>
9

> <PUBCHEM_CACTVS_HBOND_DONOR>
2

> <PUBCHEM_CACTVS_ROTATABLE_BOND>
21

> <PUBCHEM_CACTVS_SUBSKEYS>
AAADcfB/uQIAAAAAAAAAAAAAAAAAAAAAAAAwYIEAAAAAAACBQAAAHggQACgADAzpmAYyzoPABRCoQyXyXICCCAAlIgAIiIEebNgMJjLEtZuGOSjm1hnI6YeY3/OOyAACAgAYAACQAAQEADAAAAAAAAAAAA==

> <PUBCHEM_IUPAC_OPENEYE_NAME>
2-[3-(dimethylamino)-6-dimethyliminio-xanthen-9-yl]-5-[5-[10-[ethoxy(fluoro)phosphoryl]decanoylamino]pentylcarbamoyl]benzoate

> <PUBCHEM_IUPAC_CAS_NAME>
2-[3-(dimethylamino)-6-dimethyliminio-9-xanthenyl]-5-[[5-[[10-[ethoxy(fluoro)phosphoryl]-1-oxodecyl]amino]pentylamino]-oxomethyl]benzoate

> <PUBCHEM_IUPAC_NAME>
2-[3-(dimethylamino)-6-dimethylazaniumylidenexanthen-9-yl]-5-[5-[10-[ethoxy(fluoro)phosphoryl]decanoylamino]pentylcarbamoyl]benzoate

> <PUBCHEM_IUPAC_SYSTEMATIC_NAME>
2-[3-(dimethylamino)-6-dimethylazaniumylidene-xanthen-9-yl]-5-[5-[10-[ethoxy(fluoranyl)phosphoryl]decanoylamino]pentylcarbamoyl]benzoate

> <PUBCHEM_IUPAC_TRADITIONAL_NAME>
2-[3-(dimethylamino)-6-dimethyliminio-xanthen-9-yl]-5-[5-[10-[ethoxy(fluoro)phosphoryl]decanoylamino]pentylcarbamoyl]benzoate

> <PUBCHEM_IUPAC_INCHI>
InChI=1S/C42H56FN4O7P/c1-6-53-55(43,52)26-16-11-9-7-8-10-13-17-39(48)44-24-14-12-15-25-45-41(49)30-18-21-33(36(27-30)42(50)51)40-34-22-19-31(46(2)3)28-37(34)54-38-29-32(47(4)5)20-23-35(38)40/h18-23,27-29H,6-17,24-26H2,1-5H3,(H2-,44,45,48,49,50,51)

> <PUBCHEM_IUPAC_INCHIKEY>
FZIJJLXVCAPXNY-UHFFFAOYSA-N

> <PUBCHEM_XLOGP3_AA>
6.6

> <PUBCHEM_EXACT_MASS>
778.387065

> <PUBCHEM_MOLECULAR_FORMULA>
C42H56FN4O7P

> <PUBCHEM_MOLECULAR_WEIGHT>
778.888805

> <PUBCHEM_OPENEYE_CAN_SMILES>
CCOP(=O)(CCCCCCCCCC(=O)NCCCCCNC(=O)C1=CC(=C(C=C1)C2=C3C=CC(=[N+](C)C)C=C3OC4=C2C=CC(=C4)N(C)C)C(=O)[O-])F

> <PUBCHEM_OPENEYE_ISO_SMILES>
CCOP(=O)(CCCCCCCCCC(=O)NCCCCCNC(=O)C1=CC(=C(C=C1)C2=C3C=CC(=[N+](C)C)C=C3OC4=C2C=CC(=C4)N(C)C)C(=O)[O-])F

> <PUBCHEM_CACTVS_TPSA>
140

> <PUBCHEM_MONOISOTOPIC_WEIGHT>
778.387065

> <PUBCHEM_TOTAL_CHARGE>
0

> <PUBCHEM_HEAVY_ATOM_COUNT>
55

> <PUBCHEM_ATOM_DEF_STEREO_COUNT>
0

> <PUBCHEM_ATOM_UDEF_STEREO_COUNT>
1

> <PUBCHEM_BOND_DEF_STEREO_COUNT>
0

> <PUBCHEM_BOND_UDEF_STEREO_COUNT>
0

> <PUBCHEM_ISOTOPIC_ATOM_COUNT>
0

> <PUBCHEM_COMPONENT_COUNT>
1

> <PUBCHEM_CACTVS_TAUTO_COUNT>
4

> <PUBCHEM_COORDINATE_TYPE>
1 __ 5 __ 255

> <PUBCHEM_BONDANNOTATIONS>
1  2  3 __ 28  29  8 __ 28  30  8 __ 29  36  8 __ 30  34  8 __ 30  37  8 __ 32  35  8 __ 32  42  8 __ 33  38  8 __ 34  39  8 __ 35  44  8 __ 36  45  8 __ 37  46  8 __ 38  40  8 __ 39  41  8 __ 4  33  8 __ 4  34  8 __ 40  45  8 __ 41  46  8 __ 42  47  8 __ 43  44  8 __ 43  47  8 __ 

$$$$
